
     Program BANDS v.6.4.1 starts on 25Jun2022 at  1: 1:49 

     This program is part of the open-source Quantum ESPRESSO suite
     for quantum simulation of materials; please cite
         "P. Giannozzi et al., J. Phys.:Condens. Matter 21 395502 (2009);
         "P. Giannozzi et al., J. Phys.:Condens. Matter 29 465901 (2017);
          URL http://www.quantum-espresso.org", 
     in publications or presentations arising from this work. More details at
     http://www.quantum-espresso.org/quote

     Parallel version (MPI & OpenMP), running on       8 processor cores
     Number of MPI processes:                 1
     Threads/MPI process:                     8

     MPI processes distributed on     1 nodes

     Reading data from directory:
     ./outdir/\si.save\

     IMPORTANT: XC functional enforced from input :
     Exchange-correlation      = PBE ( 1  4  3  4 0 0)
     Any further DFT definition will be discarded
     Please, verify this is what you really want


     G-vector sticks info
     --------------------
     sticks:   dense  smooth     PW     G-vecs:    dense   smooth      PW
     Sum        2587     859    253                87027    16625    2685

     high-symmetry point:  0.5000 0.5000 0.5000   x coordinate   0.0000
     high-symmetry point:  0.0000 0.0000 0.0000   x coordinate   0.8660
     high-symmetry point:  1.0000 0.0000 0.0000   x coordinate   1.8660
     high-symmetry point:  1.0000 0.2500 0.2500   x coordinate   2.2196
     high-symmetry point:  0.0000 0.0000 0.0000   x coordinate   3.2802

     Plottable bands (eV) written to file si.band.gnu
     Bands written to file si.band

 **************************************************************************

                    xk=(   0.50000,   0.50000,   0.50000  )

     zone border point and non-symmorphic group 
     symmetry decomposition not available

 **************************************************************************

 **************************************************************************

                    xk=(   0.47500,   0.47500,   0.47500  )

     point group C_3v (3m)  
     there are  3 classes
     the character table:

       E     2C3   3s_v 
A_1    1.00  1.00  1.00
A_2    1.00  1.00 -1.00
E      2.00 -1.00  0.00

     the symmetry operations in each class and the name of the first element:

     E        1
                                                                 
     2C3      2    3
                                                                 
     3s_v     4    5    6
                                                                 

     Band symmetry, C_3v (3m)   point group:

     e(  1 -  1) =     -3.36660  eV     1   --> A_1  L_1       
     e(  2 -  2) =     -0.62403  eV     1   --> A_1  L_1       
     e(  3 -  4) =      5.16218  eV     2   --> E    L_3       
     e(  5 -  5) =      7.97083  eV     1   --> A_1  L_1       
     e(  6 -  7) =      9.71183  eV     2   --> E    L_3       
     e(  8 -  8) =     14.13625  eV     1   --> A_1  L_1       

 **************************************************************************

 **************************************************************************

                    xk=(   0.45000,   0.45000,   0.45000  )

     Band symmetry, C_3v (3m)   point group:

     e(  1 -  1) =     -3.46796  eV     1   --> A_1  L_1       
     e(  2 -  2) =     -0.47581  eV     1   --> A_1  L_1       
     e(  3 -  4) =      5.17574  eV     2   --> E    L_3       
     e(  5 -  5) =      7.98626  eV     1   --> A_1  L_1       
     e(  6 -  7) =      9.72779  eV     2   --> E    L_3       
     e(  8 -  8) =     14.16068  eV     1   --> A_1  L_1       

 **************************************************************************

 **************************************************************************

                    xk=(   0.42500,   0.42500,   0.42500  )

     Band symmetry, C_3v (3m)   point group:

     e(  1 -  1) =     -3.61611  eV     1   --> A_1  L_1       
     e(  2 -  2) =     -0.24965  eV     1   --> A_1  L_1       
     e(  3 -  4) =      5.19833  eV     2   --> E    L_3       
     e(  5 -  5) =      8.01191  eV     1   --> A_1  L_1       
     e(  6 -  7) =      9.75313  eV     2   --> E    L_3       
     e(  8 -  8) =     14.19911  eV     1   --> A_1  L_1       

 **************************************************************************

 **************************************************************************

                    xk=(   0.40000,   0.40000,   0.40000  )

     Band symmetry, C_3v (3m)   point group:

     e(  1 -  1) =     -3.79243  eV     1   --> A_1  L_1       
     e(  2 -  2) =      0.03561  eV     1   --> A_1  L_1       
     e(  3 -  4) =      5.22991  eV     2   --> E    L_3       
     e(  5 -  5) =      8.04764  eV     1   --> A_1  L_1       
     e(  6 -  7) =      9.78588  eV     2   --> E    L_3       
     e(  8 -  8) =     14.24702  eV     1   --> A_1  L_1       

 **************************************************************************

 **************************************************************************

                    xk=(   0.37500,   0.37500,   0.37500  )

     Band symmetry, C_3v (3m)   point group:

     e(  1 -  1) =     -3.98254  eV     1   --> A_1  L_1       
     e(  2 -  2) =      0.36529  eV     1   --> A_1  L_1       
     e(  3 -  4) =      5.27044  eV     2   --> E    L_3       
     e(  5 -  5) =      8.09329  eV     1   --> A_1  L_1       
     e(  6 -  7) =      9.82306  eV     2   --> E    L_3       
     e(  8 -  8) =     14.29476  eV     1   --> A_1  L_1       

 **************************************************************************

 **************************************************************************

                    xk=(   0.35000,   0.35000,   0.35000  )

     Band symmetry, C_3v (3m)   point group:

     e(  1 -  1) =     -4.17658  eV     1   --> A_1  L_1       
     e(  2 -  2) =      0.72918  eV     1   --> A_1  L_1       
     e(  3 -  4) =      5.31981  eV     2   --> E    L_3       
     e(  5 -  5) =      8.14855  eV     1   --> A_1  L_1       
     e(  6 -  7) =      9.86055  eV     2   --> E    L_3       
     e(  8 -  8) =     14.32098  eV     1   --> A_1  L_1       

 **************************************************************************

 **************************************************************************

                    xk=(   0.32500,   0.32500,   0.32500  )

     Band symmetry, C_3v (3m)   point group:

     e(  1 -  1) =     -4.36806  eV     1   --> A_1  L_1       
     e(  2 -  2) =      1.12026  eV     1   --> A_1  L_1       
     e(  3 -  4) =      5.37785  eV     2   --> E    L_3       
     e(  5 -  5) =      8.21305  eV     1   --> A_1  L_1       
     e(  6 -  7) =      9.89295  eV     2   --> E    L_3       
     e(  8 -  8) =     14.27991  eV     1   -->   ?

 **************************************************************************

 **************************************************************************

                    xk=(   0.30000,   0.30000,   0.30000  )

     Band symmetry, C_3v (3m)   point group:

     e(  1 -  1) =     -4.55272  eV     1   --> A_1  L_1       
     e(  2 -  2) =      1.53359  eV     1   --> A_1  L_1       
     e(  3 -  4) =      5.44431  eV     2   --> E    L_3       
     e(  5 -  5) =      8.28621  eV     1   --> A_1  L_1       
     e(  6 -  7) =      9.91365  eV     2   --> E    L_3       
     e(  8 -  8) =     13.99321  eV     1   -->   ?

 **************************************************************************

 **************************************************************************

                    xk=(   0.27500,   0.27500,   0.27500  )

     Band symmetry, C_3v (3m)   point group:

     e(  1 -  1) =     -4.72767  eV     1   --> A_1  L_1       
     e(  2 -  2) =      1.96545  eV     1   --> A_1  L_1       
     e(  3 -  4) =      5.51879  eV     2   --> E    L_3       
     e(  5 -  5) =      8.36726  eV     1   --> A_1  L_1       
     e(  6 -  7) =      9.91531  eV     2   --> E    L_3       
     e(  8 -  8) =     13.75804  eV     1   -->   ?

 **************************************************************************

 **************************************************************************

                    xk=(   0.25000,   0.25000,   0.25000  )

     Band symmetry, C_3v (3m)   point group:

     e(  1 -  1) =     -4.89095  eV     1   --> A_1  L_1       
     e(  2 -  2) =      2.41274  eV     1   --> A_1  L_1       
     e(  3 -  4) =      5.60070  eV     2   --> E    L_3       
     e(  5 -  5) =      8.45509  eV     1   --> A_1  L_1       
     e(  6 -  7) =      9.89111  eV     2   --> E    L_3       
     e(  8 -  8) =     13.42211  eV     1   --> A_1  L_1       

 **************************************************************************

 **************************************************************************

                    xk=(   0.22500,   0.22500,   0.22500  )

     Band symmetry, C_3v (3m)   point group:

     e(  1 -  1) =     -5.04117  eV     1   --> A_1  L_1       
     e(  2 -  2) =      2.87259  eV     1   --> A_1  L_1       
     e(  3 -  4) =      5.68920  eV     2   --> E    L_3       
     e(  5 -  5) =      8.54822  eV     1   --> A_1  L_1       
     e(  6 -  7) =      9.83655  eV     2   --> E    L_3       
     e(  8 -  8) =     13.00077  eV     1   --> A_1  L_1       

 **************************************************************************

 **************************************************************************

                    xk=(   0.20000,   0.20000,   0.20000  )

     Band symmetry, C_3v (3m)   point group:

     e(  1 -  1) =     -5.17733  eV     1   --> A_1  L_1       
     e(  2 -  2) =      3.34198  eV     1   --> A_1  L_1       
     e(  3 -  4) =      5.78312  eV     2   --> E    L_3       
     e(  5 -  5) =      8.64458  eV     1   --> A_1  L_1       
     e(  6 -  7) =      9.75127  eV     2   --> E    L_3       
     e(  8 -  8) =     12.56142  eV     1   --> A_1  L_1       

 **************************************************************************

 **************************************************************************

                    xk=(   0.17500,   0.17500,   0.17500  )

     Band symmetry, C_3v (3m)   point group:

     e(  1 -  1) =     -5.29870  eV     1   --> A_1  L_1       
     e(  2 -  2) =      3.81740  eV     1   --> A_1  L_1       
     e(  3 -  4) =      5.88081  eV     2   --> E    L_3       
     e(  5 -  5) =      8.74127  eV     1   --> A_1  L_1       
     e(  6 -  7) =      9.63965  eV     2   --> E    L_3       
     e(  8 -  8) =     12.11406  eV     1   --> A_1  L_1       

 **************************************************************************

 **************************************************************************

                    xk=(   0.15000,   0.15000,   0.15000  )

     Band symmetry, C_3v (3m)   point group:

     e(  1 -  1) =     -5.40473  eV     1   --> A_1  L_1       
     e(  2 -  2) =      4.29427  eV     1   --> A_1  L_1       
     e(  3 -  4) =      5.97998  eV     2   --> E    L_3       
     e(  5 -  5) =      8.83423  eV     1   --> A_1  L_1       
     e(  6 -  7) =      9.50990  eV     2   --> E    L_3       
     e(  8 -  8) =     11.66613  eV     1   --> A_1  L_1       

 **************************************************************************

 **************************************************************************

                    xk=(   0.12500,   0.12500,   0.12500  )

     Band symmetry, C_3v (3m)   point group:

     e(  1 -  1) =     -5.49501  eV     1   --> A_1  L_1       
     e(  2 -  2) =      4.76611  eV     1   --> A_1  L_1       
     e(  3 -  4) =      6.07757  eV     2   --> E    L_3       
     e(  5 -  5) =      8.91762  eV     1   --> A_1  L_1       
     e(  6 -  7) =      9.37243  eV     2   --> E    L_3       
     e(  8 -  8) =     11.22652  eV     1   --> A_1  L_1       

 **************************************************************************

 **************************************************************************

                    xk=(   0.10000,   0.10000,   0.10000  )

     Band symmetry, C_3v (3m)   point group:

     e(  1 -  1) =     -5.56923  eV     1   --> A_1  L_1       
     e(  2 -  2) =      5.22295  eV     1   --> A_1  L_1       
     e(  3 -  4) =      6.16952  eV     2   --> E    L_3       
     e(  5 -  5) =      8.98285  eV     1   --> A_1  L_1       
     e(  6 -  7) =      9.23832  eV     2   --> E    L_3       
     e(  8 -  8) =     10.80928  eV     1   --> A_1  L_1       

 **************************************************************************

 **************************************************************************

                    xk=(   0.07500,   0.07500,   0.07500  )

     Band symmetry, C_3v (3m)   point group:

     e(  1 -  1) =     -5.62717  eV     1   --> A_1  L_1       
     e(  2 -  2) =      5.64836  eV     1   --> A_1  L_1       
     e(  3 -  4) =      6.25071  eV     2   --> E    L_3       
     e(  5 -  5) =      9.01773  eV     1   --> A_1  L_1       
     e(  6 -  7) =      9.11856  eV     2   --> E    L_3       
     e(  8 -  8) =     10.43804  eV     1   --> A_1  L_1       

 **************************************************************************

 **************************************************************************

                    xk=(   0.05000,   0.05000,   0.05000  )

     Band symmetry, C_3v (3m)   point group:

     e(  1 -  1) =     -5.66867  eV     1   --> A_1  L_1       
     e(  2 -  2) =      6.01427  eV     1   --> A_1  L_1       
     e(  3 -  4) =      6.31522  eV     2   --> E    L_3       
     e(  5 -  5) =      9.00986  eV     1   --> A_1  L_1       
     e(  6 -  7) =      9.02352  eV     2   --> E    L_3       
     e(  8 -  8) =     10.14827  eV     1   --> A_1  L_1       

 **************************************************************************

 **************************************************************************

                    xk=(   0.02500,   0.02500,   0.02500  )

     Band symmetry, C_3v (3m)   point group:

     e(  1 -  1) =     -5.69361  eV     1   --> A_1  L_1       
     e(  2 -  2) =      6.27467  eV     1   --> A_1  L_1       
     e(  3 -  4) =      6.35706  eV     2   --> E    L_3       
     e(  5 -  6) =      8.96220  eV     2   --> E    L_3       
     e(  7 -  7) =      8.96748  eV     1   --> A_1  L_1       
     e(  8 -  8) =      9.97330  eV     1   --> A_1  L_1       

 **************************************************************************

 **************************************************************************

                    xk=(   0.00000,   0.00000,   0.00000  )

     point group O_h (m-3m) 
     there are 10 classes
     the character table:

       E     8C3   3C2   6C4   6C2'  i     8S6   3s_h  6S4   6s_d 
A_1g   1.00  1.00  1.00  1.00  1.00  1.00  1.00  1.00  1.00  1.00
A_2g   1.00  1.00  1.00 -1.00 -1.00  1.00  1.00  1.00 -1.00 -1.00
E_g    2.00 -1.00  2.00  0.00  0.00  2.00 -1.00  2.00  0.00  0.00
T_1g   3.00  0.00 -1.00  1.00 -1.00  3.00  0.00 -1.00  1.00 -1.00
T_2g   3.00  0.00 -1.00 -1.00  1.00  3.00  0.00 -1.00 -1.00  1.00
A_1u   1.00  1.00  1.00  1.00  1.00 -1.00 -1.00 -1.00 -1.00 -1.00
A_2u   1.00  1.00  1.00 -1.00 -1.00 -1.00 -1.00 -1.00  1.00  1.00
E_u    2.00 -1.00  2.00  0.00  0.00 -2.00  1.00 -2.00  0.00  0.00
T_1u   3.00  0.00 -1.00  1.00 -1.00 -3.00  0.00  1.00 -1.00  1.00
T_2u   3.00  0.00 -1.00 -1.00  1.00 -3.00  0.00  1.00  1.00 -1.00

     the symmetry operations in each class and the name of the first element:

     E        1
                                                                 
     8C3     17   19   20   18   24   21   22   23
                                                                 
     3C2      2    4    3
                                                                 
     6C4      7    8   15   16   12   11
                                                                 
     6C2'     5    6   14   13   10    9
                                                                 
     i       25
                                                                 
     8S6     41   43   44   42   48   45   46   47
                                                                 
     3s_h    26   28   27
                                                                 
     6S4     31   32   39   40   36   35
                                                                 
     6s_d    29   30   38   37   34   33
                                                                 

     Band symmetry, O_h (m-3m)  point group:

     e(  1 -  1) =     -5.70193  eV     1   --> A_1g G_1   G_1+
     e(  2 -  4) =      6.37160  eV     3   --> T_2g G_25' G_5+
     e(  5 -  7) =      8.94098  eV     3   --> T_1u G_15  G_4-
     e(  8 -  8) =      9.91760  eV     1   --> A_2u G_2'  G_2-

 **************************************************************************

 **************************************************************************

                    xk=(   0.03333,   0.00000,   0.00000  )

     point group C_4v (4mm) 
     there are  5 classes
     the character table:

       E     2C4   C2    2s_v  2s_d 
A_1    1.00  1.00  1.00  1.00  1.00
A_2    1.00  1.00  1.00 -1.00 -1.00
B_1    1.00 -1.00  1.00  1.00 -1.00
B_2    1.00 -1.00  1.00 -1.00  1.00
E      2.00  0.00 -2.00  0.00  0.00

     the symmetry operations in each class and the name of the first element:

     E        1
                                                                 
     2C4      3    4
                                                                 
     C2       2
                                                                 
     2s_v     5    6
                                                                 
     2s_d     7    8
                                                                 

     Band symmetry, C_4v (4mm)  point group:

     e(  1 -  1) =     -5.69700  eV     1   --> A_1  G_1 D_1   
     e(  2 -  2) =      6.33899  eV     1   --> B_2  G_4 D_2'  
     e(  3 -  4) =      6.34994  eV     2   --> E    G_5 D_5   
     e(  5 -  5) =      8.92869  eV     1   --> A_1  G_1 D_1   
     e(  6 -  7) =      8.96871  eV     2   --> E    G_5 D_5   
     e(  8 -  8) =      9.94953  eV     1   --> B_2  G_4 D_2'  

 **************************************************************************

 **************************************************************************

                    xk=(   0.06667,   0.00000,   0.00000  )

     Band symmetry, C_4v (4mm)  point group:

     e(  1 -  1) =     -5.68221  eV     1   --> A_1  G_1 D_1   
     e(  2 -  2) =      6.24473  eV     1   --> B_2  G_4 D_2'  
     e(  3 -  4) =      6.28773  eV     2   --> E    G_5 D_5   
     e(  5 -  5) =      8.89248  eV     1   --> A_1  G_1 D_1   
     e(  6 -  7) =      9.04913  eV     2   --> E    G_5 D_5   
     e(  8 -  8) =     10.04115  eV     1   --> B_2  G_4 D_2'  

 **************************************************************************

 **************************************************************************

                    xk=(   0.10000,   0.00000,   0.00000  )

     Band symmetry, C_4v (4mm)  point group:

     e(  1 -  1) =     -5.65757  eV     1   --> A_1  G_1 D_1   
     e(  2 -  2) =      6.09778  eV     1   --> B_2  G_4 D_2'  
     e(  3 -  4) =      6.19189  eV     2   --> E    G_5 D_5   
     e(  5 -  5) =      8.83422  eV     1   --> A_1  G_1 D_1   
     e(  6 -  7) =      9.17527  eV     2   --> E    G_5 D_5   
     e(  8 -  8) =     10.18126  eV     1   --> B_2  G_4 D_2'  

 **************************************************************************

 **************************************************************************

                    xk=(   0.13333,   0.00000,   0.00000  )

     Band symmetry, C_4v (4mm)  point group:

     e(  1 -  1) =     -5.62309  eV     1   --> A_1  G_1 D_1   
     e(  2 -  2) =      5.90916  eV     1   --> B_2  G_4 D_2'  
     e(  3 -  4) =      6.07088  eV     2   --> E    G_5 D_5   
     e(  5 -  5) =      8.75672  eV     1   --> A_1  G_1 D_1   
     e(  6 -  7) =      9.33859  eV     2   --> E    G_5 D_5   
     e(  8 -  8) =     10.35444  eV     1   --> B_2  G_4 D_2'  

 **************************************************************************

 **************************************************************************

                    xk=(   0.16667,   0.00000,   0.00000  )

     Band symmetry, C_4v (4mm)  point group:

     e(  1 -  1) =     -5.57879  eV     1   --> A_1  G_1 D_1   
     e(  2 -  2) =      5.68915  eV     1   --> B_2  G_4 D_2'  
     e(  3 -  4) =      5.93258  eV     2   --> E    G_5 D_5   
     e(  5 -  5) =      8.66327  eV     1   --> A_1  G_1 D_1   
     e(  6 -  7) =      9.53114  eV     2   --> E    G_5 D_5   
     e(  8 -  8) =     10.54227  eV     1   --> B_2  G_4 D_2'  

 **************************************************************************

 **************************************************************************

                    xk=(   0.20000,   0.00000,   0.00000  )

     Band symmetry, C_4v (4mm)  point group:

     e(  1 -  1) =     -5.52471  eV     1   --> A_1  G_1 D_1   
     e(  2 -  2) =      5.44608  eV     1   --> B_2  G_4 D_2'  
     e(  3 -  4) =      5.78338  eV     2   --> E    G_5 D_5   
     e(  5 -  5) =      8.55733  eV     1   --> A_1  G_1 D_1   
     e(  6 -  7) =      9.74640  eV     2   --> E    G_5 D_5   
     e(  8 -  8) =     10.72169  eV     1   --> B_2  G_4 D_2'  

 **************************************************************************

 **************************************************************************

                    xk=(   0.23333,   0.00000,   0.00000  )

     Band symmetry, C_4v (4mm)  point group:

     e(  1 -  1) =     -5.46087  eV     1   --> A_1  G_1 D_1   
     e(  2 -  2) =      5.18622  eV     1   --> B_2  G_4 D_2'  
     e(  3 -  4) =      5.62811  eV     2   --> E    G_5 D_5   
     e(  5 -  5) =      8.44226  eV     1   --> A_1  G_1 D_1   
     e(  6 -  7) =      9.97941  eV     2   --> E    G_5 D_5   
     e(  8 -  8) =     10.86140  eV     1   --> B_2  G_4 D_2'  

 **************************************************************************

 **************************************************************************

                    xk=(   0.26667,   0.00000,   0.00000  )

     Band symmetry, C_4v (4mm)  point group:

     e(  1 -  1) =     -5.38731  eV     1   --> A_1  G_1 D_1   
     e(  2 -  2) =      4.91413  eV     1   --> B_2  G_4 D_2'  
     e(  3 -  4) =      5.47035  eV     2   --> E    G_5 D_5   
     e(  5 -  5) =      8.32111  eV     1   --> A_1  G_1 D_1   
     e(  6 -  7) =     10.22645  eV     2   --> E    G_5 D_5   
     e(  8 -  8) =     10.92282  eV     1   --> B_2  G_4 D_2'  

 **************************************************************************

 **************************************************************************

                    xk=(   0.30000,   0.00000,   0.00000  )

     Band symmetry, C_4v (4mm)  point group:

     e(  1 -  1) =     -5.30409  eV     1   --> A_1  G_1 D_1   
     e(  2 -  2) =      4.63309  eV     1   --> B_2  G_4 D_2'  
     e(  3 -  4) =      5.31272  eV     2   --> E    G_5 D_5   
     e(  5 -  5) =      8.19660  eV     1   --> A_1  G_1 D_1   
     e(  6 -  7) =     10.48475  eV     2   --> E    G_5 D_5   
     e(  8 -  8) =     10.87882  eV     1   --> B_2  G_4 D_2'  

 **************************************************************************

 **************************************************************************

                    xk=(   0.33333,   0.00000,   0.00000  )

     Band symmetry, C_4v (4mm)  point group:

     e(  1 -  1) =     -5.21124  eV     1   --> A_1  G_1 D_1   
     e(  2 -  2) =      4.34546  eV     1   --> B_2  G_4 D_2'  
     e(  3 -  4) =      5.15714  eV     2   --> E    G_5 D_5   
     e(  5 -  5) =      8.07107  eV     1   --> A_1  G_1 D_1   
     e(  6 -  6) =     10.73736  eV     1   --> B_2  G_4 D_2'  
     e(  7 -  8) =     10.75223  eV     2   --> E    G_5 D_5   

 **************************************************************************

 **************************************************************************

                    xk=(   0.36667,   0.00000,   0.00000  )

     Band symmetry, C_4v (4mm)  point group:

     e(  1 -  1) =     -5.10884  eV     1   --> A_1  G_1 D_1   
     e(  2 -  2) =      4.05295  eV     1   --> B_2  G_4 D_2'  
     e(  3 -  4) =      5.00507  eV     2   --> E    G_5 D_5   
     e(  5 -  5) =      7.94650  eV     1   --> A_1  G_1 D_1   
     e(  6 -  6) =     10.53039  eV     1   --> B_2  G_4 D_2'  
     e(  7 -  8) =     11.02729  eV     2   --> E    G_5 D_5   

 **************************************************************************

 **************************************************************************

                    xk=(   0.40000,   0.00000,   0.00000  )

     Band symmetry, C_4v (4mm)  point group:

     e(  1 -  1) =     -4.99696  eV     1   --> A_1  G_1 D_1   
     e(  2 -  2) =      3.75683  eV     1   --> B_2  G_4 D_2'  
     e(  3 -  4) =      4.85759  eV     2   --> E    G_5 D_5   
     e(  5 -  5) =      7.82458  eV     1   --> A_1  G_1 D_1   
     e(  6 -  6) =     10.28772  eV     1   --> B_2  G_4 D_2'  
     e(  7 -  8) =     11.30872  eV     2   --> E    G_5 D_5   

 **************************************************************************

 **************************************************************************

                    xk=(   0.43333,   0.00000,   0.00000  )

     Band symmetry, C_4v (4mm)  point group:

     e(  1 -  1) =     -4.87566  eV     1   --> A_1  G_1 D_1   
     e(  2 -  2) =      3.45806  eV     1   --> B_2  G_4 D_2'  
     e(  3 -  4) =      4.71556  eV     2   --> E    G_5 D_5   
     e(  5 -  5) =      7.70673  eV     1   --> A_1  G_1 D_1   
     e(  6 -  6) =     10.02889  eV     1   --> B_2  G_4 D_2'  
     e(  7 -  8) =     11.59553  eV     2   --> E    G_5 D_5   

 **************************************************************************

 **************************************************************************

                    xk=(   0.46667,   0.00000,   0.00000  )

     Band symmetry, C_4v (4mm)  point group:

     e(  1 -  1) =     -4.74504  eV     1   --> A_1  G_1 D_1   
     e(  2 -  2) =      3.15740  eV     1   --> B_2  G_4 D_2'  
     e(  3 -  4) =      4.57963  eV     2   --> E    G_5 D_5   
     e(  5 -  5) =      7.59415  eV     1   --> A_1  G_1 D_1   
     e(  6 -  6) =      9.76548  eV     1   --> B_2  G_4 D_2'  
     e(  7 -  8) =     11.88699  eV     2   --> E    G_5 D_5   

 **************************************************************************

 **************************************************************************

                    xk=(   0.50000,   0.00000,   0.00000  )

     Band symmetry, C_4v (4mm)  point group:

     e(  1 -  1) =     -4.60519  eV     1   --> A_1  G_1 D_1   
     e(  2 -  2) =      2.85547  eV     1   --> B_2  G_4 D_2'  
     e(  3 -  4) =      4.45033  eV     2   --> E    G_5 D_5   
     e(  5 -  5) =      7.48786  eV     1   --> A_1  G_1 D_1   
     e(  6 -  6) =      9.50447  eV     1   --> B_2  G_4 D_2'  
     e(  7 -  8) =     12.18247  eV     2   --> E    G_5 D_5   

 **************************************************************************

 **************************************************************************

                    xk=(   0.53333,   0.00000,   0.00000  )

     Band symmetry, C_4v (4mm)  point group:

     e(  1 -  1) =     -4.45621  eV     1   --> A_1  G_1 D_1   
     e(  2 -  2) =      2.55283  eV     1   --> B_2  G_4 D_2'  
     e(  3 -  4) =      4.32808  eV     2   --> E    G_5 D_5   
     e(  5 -  5) =      7.38872  eV     1   --> A_1  G_1 D_1   
     e(  6 -  6) =      9.25018  eV     1   --> B_2  G_4 D_2'  
     e(  7 -  8) =     12.48153  eV     2   --> E    G_5 D_5   

 **************************************************************************

 **************************************************************************

                    xk=(   0.56667,   0.00000,   0.00000  )

     Band symmetry, C_4v (4mm)  point group:

     e(  1 -  1) =     -4.29822  eV     1   --> A_1  G_1 D_1   
     e(  2 -  2) =      2.24996  eV     1   --> B_2  G_4 D_2'  
     e(  3 -  4) =      4.21323  eV     2   --> E    G_5 D_5   
     e(  5 -  5) =      7.29748  eV     1   --> A_1  G_1 D_1   
     e(  6 -  6) =      9.00538  eV     1   --> B_2  G_4 D_2'  
     e(  7 -  8) =     12.78379  eV     2   --> E    G_5 D_5   

 **************************************************************************

 **************************************************************************

                    xk=(   0.60000,   0.00000,   0.00000  )

     Band symmetry, C_4v (4mm)  point group:

     e(  1 -  1) =     -4.13134  eV     1   --> A_1  G_1 D_1   
     e(  2 -  2) =      1.94734  eV     1   --> B_2  G_4 D_2'  
     e(  3 -  4) =      4.10605  eV     2   --> E    G_5 D_5   
     e(  5 -  5) =      7.21478  eV     1   --> A_1  G_1 D_1   
     e(  6 -  6) =      8.77193  eV     1   --> B_2  G_4 D_2'  
     e(  7 -  8) =     13.08897  eV     2   --> E    G_5 D_5   

 **************************************************************************

 **************************************************************************

                    xk=(   0.63333,   0.00000,   0.00000  )

     Band symmetry, C_4v (4mm)  point group:

     e(  1 -  1) =     -3.95571  eV     1   --> A_1  G_1 D_1   
     e(  2 -  2) =      1.64543  eV     1   --> B_2  G_4 D_2'  
     e(  3 -  4) =      4.00679  eV     2   --> E    G_5 D_5   
     e(  5 -  5) =      7.14121  eV     1   --> A_1  G_1 D_1   
     e(  6 -  6) =      8.55106  eV     1   --> B_2  G_4 D_2'  
     e(  7 -  8) =     13.39685  eV     2   --> E    G_5 D_5   

 **************************************************************************

 **************************************************************************

                    xk=(   0.66667,   0.00000,   0.00000  )

     Band symmetry, C_4v (4mm)  point group:

     e(  1 -  1) =     -3.77148  eV     1   --> A_1  G_1 D_1   
     e(  2 -  2) =      1.34467  eV     1   --> B_2  G_4 D_2'  
     e(  3 -  4) =      3.91564  eV     2   --> E    G_5 D_5   
     e(  5 -  5) =      7.07727  eV     1   --> A_1  G_1 D_1   
     e(  6 -  6) =      8.34360  eV     1   --> B_2  G_4 D_2'  
     e(  7 -  8) =     13.70727  eV     2   --> E    G_5 D_5   

 **************************************************************************

 **************************************************************************

                    xk=(   0.70000,   0.00000,   0.00000  )

     Band symmetry, C_4v (4mm)  point group:

     e(  1 -  1) =     -3.57880  eV     1   --> A_1  G_1 D_1   
     e(  2 -  2) =      1.04552  eV     1   --> B_2  G_4 D_2'  
     e(  3 -  4) =      3.83275  eV     2   --> E    G_5 D_5   
     e(  5 -  5) =      7.02340  eV     1   --> A_1  G_1 D_1   
     e(  6 -  6) =      8.15008  eV     1   --> B_2  G_4 D_2'  
     e(  7 -  8) =     14.02006  eV     2   --> E    G_5 D_5   

 **************************************************************************

 **************************************************************************

                    xk=(   0.73333,   0.00000,   0.00000  )

     Band symmetry, C_4v (4mm)  point group:

     e(  1 -  1) =     -3.37787  eV     1   --> A_1  G_1 D_1   
     e(  2 -  2) =      0.74845  eV     1   --> B_2  G_4 D_2'  
     e(  3 -  4) =      3.75828  eV     2   --> E    G_5 D_5   
     e(  5 -  5) =      6.98003  eV     1   --> A_1  G_1 D_1   
     e(  6 -  6) =      7.97082  eV     1   --> B_2  G_4 D_2'  
     e(  7 -  8) =     14.33506  eV     2   --> E    G_5 D_5   

 **************************************************************************

 **************************************************************************

                    xk=(   0.76667,   0.00000,   0.00000  )

     Band symmetry, C_4v (4mm)  point group:

     e(  1 -  1) =     -3.16887  eV     1   --> A_1  G_1 D_1   
     e(  2 -  2) =      0.45391  eV     1   --> B_2  G_4 D_2'  
     e(  3 -  4) =      3.69233  eV     2   --> E    G_5 D_5   
     e(  5 -  5) =      6.94753  eV     1   --> A_1  G_1 D_1   
     e(  6 -  6) =      7.80601  eV     1   --> B_2  G_4 D_2'  
     e(  7 -  8) =     14.65203  eV     2   --> E    G_5 D_5   

 **************************************************************************

 **************************************************************************

                    xk=(   0.80000,   0.00000,   0.00000  )

     Band symmetry, C_4v (4mm)  point group:

     e(  1 -  1) =     -2.95200  eV     1   --> A_1  G_1 D_1   
     e(  2 -  2) =      0.16235  eV     1   --> B_2  G_4 D_2'  
     e(  3 -  4) =      3.63500  eV     2   --> E    G_5 D_5   
     e(  5 -  5) =      6.92627  eV     1   --> A_1  G_1 D_1   
     e(  6 -  6) =      7.65569  eV     1   --> B_2  G_4 D_2'  
     e(  7 -  8) =     14.97055  eV     2   --> E    G_5 D_5   

 **************************************************************************

 **************************************************************************

                    xk=(   0.83333,   0.00000,   0.00000  )

     Band symmetry, C_4v (4mm)  point group:

     e(  1 -  1) =     -2.72750  eV     1   --> A_1  G_1 D_1   
     e(  2 -  2) =     -0.12576  eV     1   --> B_2  G_4 D_2'  
     e(  3 -  4) =      3.58637  eV     2   --> E    G_5 D_5   
     e(  5 -  5) =      6.91656  eV     1   --> A_1  G_1 D_1   
     e(  6 -  6) =      7.51982  eV     1   --> B_2  G_4 D_2'  
     e(  7 -  8) =     15.28990  eV     2   --> E    G_5 D_5   

 **************************************************************************

 **************************************************************************

                    xk=(   0.86667,   0.00000,   0.00000  )

     Band symmetry, C_4v (4mm)  point group:

     e(  1 -  1) =     -2.49561  eV     1   --> A_1  G_1 D_1   
     e(  2 -  2) =     -0.40999  eV     1   --> B_2  G_4 D_2'  
     e(  3 -  4) =      3.54649  eV     2   --> E    G_5 D_5   
     e(  5 -  5) =      6.91874  eV     1   --> A_1  G_1 D_1   
     e(  6 -  6) =      7.39830  eV     1   --> B_2  G_4 D_2'  
     e(  7 -  8) =     15.60860  eV     2   --> E    G_5 D_5   

 **************************************************************************

 **************************************************************************

                    xk=(   0.90000,   0.00000,   0.00000  )

     Band symmetry, C_4v (4mm)  point group:

     e(  1 -  1) =     -2.25659  eV     1   --> A_1  G_1 D_1   
     e(  2 -  2) =     -0.68990  eV     1   --> B_2  G_4 D_2'  
     e(  3 -  4) =      3.51543  eV     2   --> E    G_5 D_5   
     e(  5 -  5) =      6.93311  eV     1   --> A_1  G_1 D_1   
     e(  6 -  6) =      7.29099  eV     1   --> B_2  G_4 D_2'  
     e(  7 -  8) =     15.92338  eV     2   --> E    G_5 D_5   

 **************************************************************************

 **************************************************************************

                    xk=(   0.93333,   0.00000,   0.00000  )

     Band symmetry, C_4v (4mm)  point group:

     e(  1 -  1) =     -2.01071  eV     1   --> A_1  G_1 D_1   
     e(  2 -  2) =     -0.96508  eV     1   --> B_2  G_4 D_2'  
     e(  3 -  4) =      3.49322  eV     2   --> E    G_5 D_5   
     e(  5 -  5) =      6.95996  eV     1   --> A_1  G_1 D_1   
     e(  6 -  6) =      7.19768  eV     1   --> B_2  G_4 D_2'  
     e(  7 -  8) =     16.22573  eV     2   --> E    G_5 D_5   

 **************************************************************************

 **************************************************************************

                    xk=(   0.96667,   0.00000,   0.00000  )

     Band symmetry, C_4v (4mm)  point group:

     e(  1 -  1) =     -1.75829  eV     1   --> A_1  G_1 D_1   
     e(  2 -  2) =     -1.23513  eV     1   --> B_2  G_4 D_2'  
     e(  3 -  4) =      3.47988  eV     2   --> E    G_5 D_5   
     e(  5 -  5) =      6.99957  eV     1   --> A_1  G_1 D_1   
     e(  6 -  6) =      7.11817  eV     1   --> B_2  G_4 D_2'  
     e(  7 -  8) =     16.48800  eV     2   --> E    G_5 D_5   

 **************************************************************************

 **************************************************************************

                    xk=(   1.00000,   0.00000,   0.00000  )

     zone border point and non-symmorphic group 
     symmetry decomposition not available

 **************************************************************************

 **************************************************************************

                    xk=(   1.00000,   0.02500,   0.02500  )

     zone border point and non-symmorphic group 
     symmetry decomposition not available

 **************************************************************************

 **************************************************************************

                    xk=(   1.00000,   0.05000,   0.05000  )

     zone border point and non-symmorphic group 
     symmetry decomposition not available

 **************************************************************************

 **************************************************************************

                    xk=(   1.00000,   0.07500,   0.07500  )

     zone border point and non-symmorphic group 
     symmetry decomposition not available

 **************************************************************************

 **************************************************************************

                    xk=(   1.00000,   0.10000,   0.10000  )

     zone border point and non-symmorphic group 
     symmetry decomposition not available

 **************************************************************************

 **************************************************************************

                    xk=(   1.00000,   0.12500,   0.12500  )

     zone border point and non-symmorphic group 
     symmetry decomposition not available

 **************************************************************************

 **************************************************************************

                    xk=(   1.00000,   0.15000,   0.15000  )

     zone border point and non-symmorphic group 
     symmetry decomposition not available

 **************************************************************************

 **************************************************************************

                    xk=(   1.00000,   0.17500,   0.17500  )

     zone border point and non-symmorphic group 
     symmetry decomposition not available

 **************************************************************************

 **************************************************************************

                    xk=(   1.00000,   0.20000,   0.20000  )

     zone border point and non-symmorphic group 
     symmetry decomposition not available

 **************************************************************************

 **************************************************************************

                    xk=(   1.00000,   0.22500,   0.22500  )

     zone border point and non-symmorphic group 
     symmetry decomposition not available

 **************************************************************************

 **************************************************************************

                    xk=(   1.00000,   0.25000,   0.25000  )

     zone border point and non-symmorphic group 
     symmetry decomposition not available

 **************************************************************************

 **************************************************************************

                    xk=(   0.96667,   0.24167,   0.24167  )

     point group C_s (m)    
     there are  2 classes
     the character table:

       E     s    
A'     1.00  1.00
A''    1.00 -1.00

     the symmetry operations in each class and the name of the first element:

     E        1
                                                                 
     s        2
                                                                 

     Band symmetry, C_s (m)     point group:

     e(  1 -  1) =     -1.91663  eV     1   --> A'             
     e(  2 -  2) =     -0.90522  eV     1   --> A'             
     e(  3 -  3) =      2.03881  eV     1   --> A'             
     e(  4 -  4) =      3.88549  eV     1   --> A''            
     e(  5 -  5) =      7.52886  eV     1   --> A'             
     e(  6 -  6) =     10.35341  eV     1   --> A'             
     e(  7 -  7) =     13.93255  eV     1   --> A''            
     e(  8 -  8) =     14.34495  eV     1   --> A'             

 **************************************************************************

 **************************************************************************

                    xk=(   0.93333,   0.23333,   0.23333  )

     Band symmetry, C_s (m)     point group:

     e(  1 -  1) =     -2.00439  eV     1   --> A'             
     e(  2 -  2) =     -0.82747  eV     1   --> A'             
     e(  3 -  3) =      2.11383  eV     1   --> A'             
     e(  4 -  4) =      3.87097  eV     1   --> A''            
     e(  5 -  5) =      7.51530  eV     1   --> A'             
     e(  6 -  6) =     10.20408  eV     1   --> A'             
     e(  7 -  7) =     13.84159  eV     1   --> A''            
     e(  8 -  8) =     14.12894  eV     1   --> A'             

 **************************************************************************

 **************************************************************************

                    xk=(   0.90000,   0.22500,   0.22500  )

     Band symmetry, C_s (m)     point group:

     e(  1 -  1) =     -2.15310  eV     1   --> A'             
     e(  2 -  2) =     -0.68886  eV     1   --> A'             
     e(  3 -  3) =      2.21349  eV     1   --> A'             
     e(  4 -  4) =      3.86566  eV     1   --> A''            
     e(  5 -  5) =      7.51421  eV     1   --> A'             
     e(  6 -  6) =     10.06897  eV     1   --> A'             
     e(  7 -  7) =     13.70492  eV     1   --> A''            
     e(  8 -  8) =     13.90539  eV     1   --> A'             

 **************************************************************************

 **************************************************************************

                    xk=(   0.86667,   0.21667,   0.21667  )

     Band symmetry, C_s (m)     point group:

     e(  1 -  1) =     -2.33637  eV     1   --> A'             
     e(  2 -  2) =     -0.51221  eV     1   --> A'             
     e(  3 -  3) =      2.33391  eV     1   --> A'             
     e(  4 -  4) =      3.86967  eV     1   --> A''            
     e(  5 -  5) =      7.52518  eV     1   --> A'             
     e(  6 -  6) =      9.94904  eV     1   --> A'             
     e(  7 -  7) =     13.55243  eV     1   --> A''            
     e(  8 -  8) =     13.68082  eV     1   --> A'             

 **************************************************************************

 **************************************************************************

                    xk=(   0.83333,   0.20833,   0.20833  )

     Band symmetry, C_s (m)     point group:

     e(  1 -  1) =     -2.53734  eV     1   --> A'             
     e(  2 -  2) =     -0.31152  eV     1   --> A'             
     e(  3 -  3) =      2.47180  eV     1   --> A'             
     e(  4 -  4) =      3.88309  eV     1   --> A''            
     e(  5 -  5) =      7.54761  eV     1   --> A'             
     e(  6 -  6) =      9.84539  eV     1   --> A'             
     e(  7 -  7) =     13.39517  eV     1   --> A''            
     e(  8 -  8) =     13.45677  eV     1   --> A'             

 **************************************************************************

 **************************************************************************

                    xk=(   0.80000,   0.20000,   0.20000  )

     Band symmetry, C_s (m)     point group:

     e(  1 -  1) =     -2.74645  eV     1   --> A'             
     e(  2 -  2) =     -0.09412  eV     1   --> A'             
     e(  3 -  3) =      2.62435  eV     1   --> A'             
     e(  4 -  4) =      3.90599  eV     1   --> A''            
     e(  5 -  5) =      7.58059  eV     1   --> A'             
     e(  6 -  6) =      9.75933  eV     1   --> A'             
     e(  7 -  7) =     13.23385  eV     1   --> A'             
     e(  8 -  8) =     13.23732  eV     1   --> A''            

 **************************************************************************

 **************************************************************************

                    xk=(   0.76667,   0.19167,   0.19167  )

     Band symmetry, C_s (m)     point group:

     e(  1 -  1) =     -2.95807  eV     1   --> A'             
     e(  2 -  2) =      0.13615  eV     1   --> A'             
     e(  3 -  3) =      2.78919  eV     1   --> A'             
     e(  4 -  4) =      3.93839  eV     1   --> A''            
     e(  5 -  5) =      7.62295  eV     1   --> A'             
     e(  6 -  6) =      9.69240  eV     1   --> A'             
     e(  7 -  7) =     13.01235  eV     1   --> A'             
     e(  8 -  8) =     13.08035  eV     1   --> A''            

 **************************************************************************

 **************************************************************************

                    xk=(   0.73333,   0.18333,   0.18333  )

     Band symmetry, C_s (m)     point group:

     e(  1 -  1) =     -3.16869  eV     1   --> A'             
     e(  2 -  2) =      0.37715  eV     1   --> A'             
     e(  3 -  3) =      2.96423  eV     1   --> A'             
     e(  4 -  4) =      3.98031  eV     1   --> A''            
     e(  5 -  5) =      7.67314  eV     1   --> A'             
     e(  6 -  6) =      9.64639  eV     1   --> A'             
     e(  7 -  7) =     12.79247  eV     1   --> A'             
     e(  8 -  8) =     12.92437  eV     1   --> A''            

 **************************************************************************

 **************************************************************************

                    xk=(   0.70000,   0.17500,   0.17500  )

     Band symmetry, C_s (m)     point group:

     e(  1 -  1) =     -3.37595  eV     1   --> A'             
     e(  2 -  2) =      0.62759  eV     1   --> A'             
     e(  3 -  3) =      3.14760  eV     1   --> A'             
     e(  4 -  4) =      4.03172  eV     1   --> A''            
     e(  5 -  5) =      7.72931  eV     1   --> A'             
     e(  6 -  6) =      9.62328  eV     1   --> A'             
     e(  7 -  7) =     12.57440  eV     1   --> A'             
     e(  8 -  8) =     12.76878  eV     1   --> A''            

 **************************************************************************

 **************************************************************************

                    xk=(   0.66667,   0.16667,   0.16667  )

     Band symmetry, C_s (m)     point group:

     e(  1 -  1) =     -3.57818  eV     1   --> A'             
     e(  2 -  2) =      0.88665  eV     1   --> A'             
     e(  3 -  3) =      3.33759  eV     1   --> A'             
     e(  4 -  4) =      4.09257  eV     1   --> A''            
     e(  5 -  5) =      7.78939  eV     1   --> A'             
     e(  6 -  6) =      9.62513  eV     1   --> A'             
     e(  7 -  7) =     12.35838  eV     1   --> A'             
     e(  8 -  8) =     12.61243  eV     1   --> A''            

 **************************************************************************

 **************************************************************************

                    xk=(   0.63333,   0.15833,   0.15833  )

     Band symmetry, C_s (m)     point group:

     e(  1 -  1) =     -3.77416  eV     1   --> A'             
     e(  2 -  2) =      1.15376  eV     1   --> A'             
     e(  3 -  3) =      3.53263  eV     1   --> A'             
     e(  4 -  4) =      4.16279  eV     1   --> A''            
     e(  5 -  5) =      7.85128  eV     1   --> A'             
     e(  6 -  6) =      9.65376  eV     1   --> A'             
     e(  7 -  7) =     12.14474  eV     1   --> A'             
     e(  8 -  8) =     12.45383  eV     1   --> A''            

 **************************************************************************

 **************************************************************************

                    xk=(   0.60000,   0.15000,   0.15000  )

     Band symmetry, C_s (m)     point group:

     e(  1 -  1) =     -3.96297  eV     1   --> A'             
     e(  2 -  2) =      1.42850  eV     1   --> A'             
     e(  3 -  3) =      3.73126  eV     1   --> A'             
     e(  4 -  4) =      4.24227  eV     1   --> A''            
     e(  5 -  5) =      7.91314  eV     1   --> A'             
     e(  6 -  6) =      9.71038  eV     1   --> A'             
     e(  7 -  7) =     11.93403  eV     1   --> A'             
     e(  8 -  8) =     12.29120  eV     1   --> A''            

 **************************************************************************

 **************************************************************************

                    xk=(   0.56667,   0.14167,   0.14167  )

     Band symmetry, C_s (m)     point group:

     e(  1 -  1) =     -4.14387  eV     1   --> A'             
     e(  2 -  2) =      1.71050  eV     1   --> A'             
     e(  3 -  3) =      3.93208  eV     1   --> A'             
     e(  4 -  4) =      4.33086  eV     1   --> A''            
     e(  5 -  5) =      7.97374  eV     1   --> A'             
     e(  6 -  6) =      9.79501  eV     1   --> A'             
     e(  7 -  7) =     11.72712  eV     1   --> A'             
     e(  8 -  8) =     12.12260  eV     1   --> A''            

 **************************************************************************

 **************************************************************************

                    xk=(   0.53333,   0.13333,   0.13333  )

     Band symmetry, C_s (m)     point group:

     e(  1 -  1) =     -4.31630  eV     1   --> A'             
     e(  2 -  2) =      1.99940  eV     1   --> A'             
     e(  3 -  3) =      4.13378  eV     1   --> A'             
     e(  4 -  4) =      4.42837  eV     1   --> A''            
     e(  5 -  5) =      8.03263  eV     1   --> A'             
     e(  6 -  6) =      9.90593  eV     1   --> A'             
     e(  7 -  7) =     11.52550  eV     1   --> A'             
     e(  8 -  8) =     11.94617  eV     1   --> A''            

 **************************************************************************

 **************************************************************************

                    xk=(   0.50000,   0.12500,   0.12500  )

     Band symmetry, C_s (m)     point group:

     e(  1 -  1) =     -4.47980  eV     1   --> A'             
     e(  2 -  2) =      2.29487  eV     1   --> A'             
     e(  3 -  3) =      4.33511  eV     1   --> A'             
     e(  4 -  4) =      4.53456  eV     1   --> A''            
     e(  5 -  5) =      8.09013  eV     1   --> A'             
     e(  6 -  6) =     10.03862  eV     1   --> A'             
     e(  7 -  7) =     11.33213  eV     1   --> A'             
     e(  8 -  8) =     11.76027  eV     1   --> A''            

 **************************************************************************

 **************************************************************************

                    xk=(   0.46667,   0.11667,   0.11667  )

     Band symmetry, C_s (m)     point group:

     e(  1 -  1) =     -4.63397  eV     1   --> A'             
     e(  2 -  2) =      2.59649  eV     1   --> A'             
     e(  3 -  3) =      4.53486  eV     1   --> A'             
     e(  4 -  4) =      4.64913  eV     1   --> A''            
     e(  5 -  5) =      8.14716  eV     1   --> A'             
     e(  6 -  6) =     10.18334  eV     1   --> A'             
     e(  7 -  7) =     11.15383  eV     1   --> A'             
     e(  8 -  8) =     11.56383  eV     1   --> A''            

 **************************************************************************

 **************************************************************************

                    xk=(   0.43333,   0.10833,   0.10833  )

     Band symmetry, C_s (m)     point group:

     e(  1 -  1) =     -4.77851  eV     1   --> A'             
     e(  2 -  2) =      2.90378  eV     1   --> A'             
     e(  3 -  3) =      4.73184  eV     1   --> A'             
     e(  4 -  4) =      4.77168  eV     1   --> A''            
     e(  5 -  5) =      8.20488  eV     1   --> A'             
     e(  6 -  6) =     10.31656  eV     1   --> A'             
     e(  7 -  7) =     11.00952  eV     1   --> A'             
     e(  8 -  8) =     11.35649  eV     1   --> A''            

 **************************************************************************

 **************************************************************************

                    xk=(   0.40000,   0.10000,   0.10000  )

     Band symmetry, C_s (m)     point group:

     e(  1 -  1) =     -4.91314  eV     1   --> A'             
     e(  2 -  2) =      3.21616  eV     1   --> A'             
     e(  3 -  3) =      4.90172  eV     1   --> A''            
     e(  4 -  4) =      4.92489  eV     1   --> A'             
     e(  5 -  5) =      8.26446  eV     1   --> A'             
     e(  6 -  6) =     10.38091  eV     1   --> A'             
     e(  7 -  7) =     10.94966  eV     1   --> A'             
     e(  8 -  8) =     11.13882  eV     1   --> A''            

 **************************************************************************

 **************************************************************************

                    xk=(   0.36667,   0.09167,   0.09167  )

     Band symmetry, C_s (m)     point group:

     e(  1 -  1) =     -5.03766  eV     1   --> A'             
     e(  2 -  2) =      3.53287  eV     1   --> A'             
     e(  3 -  3) =      5.03861  eV     1   --> A''            
     e(  4 -  4) =      5.11281  eV     1   --> A'             
     e(  5 -  5) =      8.32678  eV     1   --> A'             
     e(  6 -  6) =     10.32405  eV     1   --> A'             
     e(  7 -  7) =     10.91228  eV     1   --> A''            
     e(  8 -  8) =     11.01542  eV     1   --> A'             

 **************************************************************************

 **************************************************************************

                    xk=(   0.33333,   0.08333,   0.08333  )

     Band symmetry, C_s (m)     point group:

     e(  1 -  1) =     -5.15187  eV     1   --> A'             
     e(  2 -  2) =      3.85294  eV     1   --> A'             
     e(  3 -  3) =      5.18153  eV     1   --> A''            
     e(  4 -  4) =      5.29435  eV     1   --> A'             
     e(  5 -  5) =      8.39233  eV     1   --> A'             
     e(  6 -  6) =     10.19301  eV     1   --> A'             
     e(  7 -  7) =     10.67915  eV     1   --> A''            
     e(  8 -  8) =     11.14037  eV     1   --> A'             

 **************************************************************************

 **************************************************************************

                    xk=(   0.30000,   0.07500,   0.07500  )

     Band symmetry, C_s (m)     point group:

     e(  1 -  1) =     -5.25561  eV     1   --> A'             
     e(  2 -  2) =      4.17505  eV     1   --> A'             
     e(  3 -  3) =      5.32938  eV     1   --> A''            
     e(  4 -  4) =      5.46817  eV     1   --> A'             
     e(  5 -  5) =      8.46111  eV     1   --> A'             
     e(  6 -  6) =     10.03821  eV     1   --> A'             
     e(  7 -  7) =     10.44236  eV     1   --> A''            
     e(  8 -  8) =     11.24017  eV     1   --> A'             

 **************************************************************************

 **************************************************************************

                    xk=(   0.26667,   0.06667,   0.06667  )

     Band symmetry, C_s (m)     point group:

     e(  1 -  1) =     -5.34875  eV     1   --> A'             
     e(  2 -  2) =      4.49744  eV     1   --> A'             
     e(  3 -  3) =      5.48073  eV     1   --> A''            
     e(  4 -  4) =      5.63280  eV     1   --> A'             
     e(  5 -  5) =      8.53251  eV     1   --> A'             
     e(  6 -  6) =      9.87839  eV     1   --> A'             
     e(  7 -  7) =     10.20536  eV     1   --> A''            
     e(  8 -  8) =     11.24968  eV     1   --> A'             

 **************************************************************************

 **************************************************************************

                    xk=(   0.23333,   0.05833,   0.05833  )

     Band symmetry, C_s (m)     point group:

     e(  1 -  1) =     -5.43118  eV     1   --> A'             
     e(  2 -  2) =      4.81764  eV     1   --> A'             
     e(  3 -  3) =      5.63364  eV     1   --> A''            
     e(  4 -  4) =      5.78659  eV     1   --> A'             
     e(  5 -  5) =      8.60532  eV     1   --> A'             
     e(  6 -  6) =      9.72047  eV     1   --> A'             
     e(  7 -  7) =      9.97210  eV     1   --> A''            
     e(  8 -  8) =     11.13861  eV     1   --> A'             

 **************************************************************************

 **************************************************************************

                    xk=(   0.20000,   0.05000,   0.05000  )

     Band symmetry, C_s (m)     point group:

     e(  1 -  1) =     -5.50279  eV     1   --> A'             
     e(  2 -  2) =      5.13210  eV     1   --> A'             
     e(  3 -  3) =      5.78542  eV     1   --> A''            
     e(  4 -  4) =      5.92763  eV     1   --> A'             
     e(  5 -  5) =      8.67766  eV     1   --> A'             
     e(  6 -  6) =      9.56756  eV     1   --> A'             
     e(  7 -  7) =      9.74704  eV     1   --> A''            
     e(  8 -  8) =     10.93562  eV     1   --> A'             

 **************************************************************************

 **************************************************************************

                    xk=(   0.16667,   0.04167,   0.04167  )

     Band symmetry, C_s (m)     point group:

     e(  1 -  1) =     -5.56351  eV     1   --> A'             
     e(  2 -  2) =      5.43567  eV     1   --> A'             
     e(  3 -  3) =      5.93245  eV     1   --> A''            
     e(  4 -  4) =      6.05376  eV     1   --> A'             
     e(  5 -  5) =      8.74705  eV     1   --> A'             
     e(  6 -  6) =      9.42136  eV     1   --> A'             
     e(  7 -  7) =      9.53544  eV     1   --> A''            
     e(  8 -  8) =     10.69174  eV     1   --> A'             

 **************************************************************************

 **************************************************************************

                    xk=(   0.13333,   0.03333,   0.03333  )

     Band symmetry, C_s (m)     point group:

     e(  1 -  1) =     -5.61328  eV     1   --> A'             
     e(  2 -  2) =      5.72060  eV     1   --> A'             
     e(  3 -  3) =      6.06972  eV     1   --> A''            
     e(  4 -  4) =      6.16252  eV     1   --> A'             
     e(  5 -  5) =      8.81045  eV     1   --> A'             
     e(  6 -  6) =      9.28333  eV     1   --> A'             
     e(  7 -  7) =      9.34360  eV     1   --> A''            
     e(  8 -  8) =     10.44698  eV     1   --> A'             

 **************************************************************************

 **************************************************************************

                    xk=(   0.10000,   0.02500,   0.02500  )

     Band symmetry, C_s (m)     point group:

     e(  1 -  1) =     -5.65204  eV     1   --> A'             
     e(  2 -  2) =      5.97532  eV     1   --> A'             
     e(  3 -  3) =      6.19062  eV     1   --> A''            
     e(  4 -  4) =      6.25121  eV     1   --> A'             
     e(  5 -  5) =      8.86453  eV     1   --> A'             
     e(  6 -  6) =      9.15622  eV     1   --> A'             
     e(  7 -  7) =      9.17921  eV     1   --> A''            
     e(  8 -  8) =     10.22949  eV     1   --> A'             

 **************************************************************************

 **************************************************************************

                    xk=(   0.06667,   0.01667,   0.01667  )

     Band symmetry, C_s (m)     point group:

     e(  1 -  1) =     -5.67975  eV     1   --> A'             
     e(  2 -  2) =      6.18305  eV     1   --> A'             
     e(  3 -  3) =      6.28692  eV     1   --> A''            
     e(  4 -  4) =      6.31712  eV     1   --> A'             
     e(  5 -  5) =      8.90600  eV     1   --> A'             
     e(  6 -  6) =      9.04702  eV     1   --> A'             
     e(  7 -  7) =      9.05129  eV     1   --> A''            
     e(  8 -  8) =     10.06027  eV     1   --> A'             

 **************************************************************************

 **************************************************************************

                    xk=(   0.03333,   0.00833,   0.00833  )

     Band symmetry, C_s (m)     point group:

     e(  1 -  1) =     -5.69639  eV     1   --> A'             
     e(  2 -  2) =      6.32215  eV     1   --> A'             
     e(  3 -  3) =      6.34970  eV     1   --> A''            
     e(  4 -  4) =      6.35782  eV     1   --> A'             
     e(  5 -  5) =      8.93208  eV     1   --> A'             
     e(  6 -  6) =      8.96932  eV     1   --> A''            
     e(  7 -  7) =      8.96957  eV     1   --> A'             
     e(  8 -  8) =      9.95379  eV     1   --> A'             

 **************************************************************************

 **************************************************************************

                    xk=(   0.00000,   0.00000,   0.00000  )

     point group O_h (m-3m) 
     there are 10 classes
     the character table:

       E     8C3   3C2   6C4   6C2'  i     8S6   3s_h  6S4   6s_d 
A_1g   1.00  1.00  1.00  1.00  1.00  1.00  1.00  1.00  1.00  1.00
A_2g   1.00  1.00  1.00 -1.00 -1.00  1.00  1.00  1.00 -1.00 -1.00
E_g    2.00 -1.00  2.00  0.00  0.00  2.00 -1.00  2.00  0.00  0.00
T_1g   3.00  0.00 -1.00  1.00 -1.00  3.00  0.00 -1.00  1.00 -1.00
T_2g   3.00  0.00 -1.00 -1.00  1.00  3.00  0.00 -1.00 -1.00  1.00
A_1u   1.00  1.00  1.00  1.00  1.00 -1.00 -1.00 -1.00 -1.00 -1.00
A_2u   1.00  1.00  1.00 -1.00 -1.00 -1.00 -1.00 -1.00  1.00  1.00
E_u    2.00 -1.00  2.00  0.00  0.00 -2.00  1.00 -2.00  0.00  0.00
T_1u   3.00  0.00 -1.00  1.00 -1.00 -3.00  0.00  1.00 -1.00  1.00
T_2u   3.00  0.00 -1.00 -1.00  1.00 -3.00  0.00  1.00  1.00 -1.00

     the symmetry operations in each class and the name of the first element:

     E        1
                                                                 
     8C3     17   19   20   18   24   21   22   23
                                                                 
     3C2      2    4    3
                                                                 
     6C4      7    8   15   16   12   11
                                                                 
     6C2'     5    6   14   13   10    9
                                                                 
     i       25
                                                                 
     8S6     41   43   44   42   48   45   46   47
                                                                 
     3s_h    26   28   27
                                                                 
     6S4     31   32   39   40   36   35
                                                                 
     6s_d    29   30   38   37   34   33
                                                                 

     Band symmetry, O_h (m-3m)  point group:

     e(  1 -  1) =     -5.70193  eV     1   --> A_1g G_1   G_1+
     e(  2 -  4) =      6.37160  eV     3   --> T_2g G_25' G_5+
     e(  5 -  7) =      8.94098  eV     3   --> T_1u G_15  G_4-
     e(  8 -  8) =      9.91760  eV     1   --> A_2u G_2'  G_2-

 **************************************************************************

     BANDS        :   2m49.59s CPU     48.83s WALL


   This run was terminated on:   1: 2:38  25Jun2022            

=------------------------------------------------------------------------------=
   JOB DONE.
=------------------------------------------------------------------------------=
