
     Program PWSCF v.6.4.1 starts on 25Jun2022 at  0:58:35 

     This program is part of the open-source Quantum ESPRESSO suite
     for quantum simulation of materials; please cite
         "P. Giannozzi et al., J. Phys.:Condens. Matter 21 395502 (2009);
         "P. Giannozzi et al., J. Phys.:Condens. Matter 29 465901 (2017);
          URL http://www.quantum-espresso.org", 
     in publications or presentations arising from this work. More details at
     http://www.quantum-espresso.org/quote

     Parallel version (MPI & OpenMP), running on       8 processor cores
     Number of MPI processes:                 1
     Threads/MPI process:                     8

     MPI processes distributed on     1 nodes
     Waiting for input...
     Reading input from standard input

     Current dimensions of program PWSCF are:
     Max number of different atomic species (ntypx) = 10
     Max number of k-points (npk) =  40000
     Max angular momentum in pseudopotentials (lmaxx) =  3

     Atomic positions and unit cell read from directory:
     ./outdir/\si.save\


     Subspace diagonalization in iterative solution of the eigenvalue problem:
     a serial algorithm will be used


     G-vector sticks info
     --------------------
     sticks:   dense  smooth     PW     G-vecs:    dense   smooth      PW
     Sum        2587     859    253                87027    16625    2685



     bravais-lattice index     =            2
     lattice parameter (alat)  =      10.2076  a.u.
     unit-cell volume          =     265.8955 (a.u.)^3
     number of atoms/cell      =            2
     number of atomic types    =            1
     number of electrons       =         8.00
     number of Kohn-Sham states=            8
     kinetic-energy cutoff     =      60.0000  Ry
     charge density cutoff     =     720.0000  Ry
     Exchange-correlation      = PBE ( 1  4  3  4 0 0)

     celldm(1)=  10.207600  celldm(2)=   0.000000  celldm(3)=   0.000000
     celldm(4)=   0.000000  celldm(5)=   0.000000  celldm(6)=   0.000000

     crystal axes: (cart. coord. in units of alat)
               a(1) = (  -0.500000   0.000000   0.500000 )  
               a(2) = (   0.000000   0.500000   0.500000 )  
               a(3) = (  -0.500000   0.500000   0.000000 )  

     reciprocal axes: (cart. coord. in units 2 pi/alat)
               b(1) = ( -1.000000 -1.000000  1.000000 )  
               b(2) = (  1.000000  1.000000  1.000000 )  
               b(3) = ( -1.000000  1.000000 -1.000000 )  


     PseudoPot. # 1 for Si read from file:
     ./Pseudopotential/\Si.pbe-n-rrkjus_psl.1.0.0.UPF
     MD5 check sum: 3b780e04df6719cf7bef3395ea53054d
     Pseudo is Ultrasoft + core correction, Zval =  4.0
     Generated using "atomic" code by A. Dal Corso v.6.3
     Using radial grid of 1141 points,  6 beta functions with: 
                l(1) =   0
                l(2) =   0
                l(3) =   1
                l(4) =   1
                l(5) =   2
                l(6) =   2
     Q(r) pseudized with 0 coefficients 


     atomic species   valence    mass     pseudopotential
        Si             4.00    28.08600     Si( 1.00)

     48 Sym. Ops., with inversion, found (24 have fractional translation)


                                    s                        frac. trans.

      isym =  1     identity                                     

 cryst.   s( 1) = (     1          0          0      )
                  (     0          1          0      )
                  (     0          0          1      )

 cart.    s( 1) = (  1.0000000  0.0000000  0.0000000 )
                  (  0.0000000  1.0000000  0.0000000 )
                  (  0.0000000  0.0000000  1.0000000 )


      isym =  2     180 deg rotation - cart. axis [0,0,1]        

 cryst.   s( 2) = (     0          1         -1      )
                  (     1          0         -1      )
                  (     0          0         -1      )

 cart.    s( 2) = ( -1.0000000  0.0000000  0.0000000 )
                  (  0.0000000 -1.0000000  0.0000000 )
                  (  0.0000000  0.0000000  1.0000000 )


      isym =  3     180 deg rotation - cart. axis [0,1,0]        

 cryst.   s( 3) = (    -1          0          0      )
                  (    -1          0          1      )
                  (    -1          1          0      )

 cart.    s( 3) = ( -1.0000000  0.0000000  0.0000000 )
                  (  0.0000000  1.0000000  0.0000000 )
                  (  0.0000000  0.0000000 -1.0000000 )


      isym =  4     180 deg rotation - cart. axis [1,0,0]        

 cryst.   s( 4) = (     0         -1          1      )
                  (     0         -1          0      )
                  (     1         -1          0      )

 cart.    s( 4) = (  1.0000000  0.0000000  0.0000000 )
                  (  0.0000000 -1.0000000  0.0000000 )
                  (  0.0000000  0.0000000 -1.0000000 )


      isym =  5     180 deg rotation - cart. axis [1,1,0]        

 cryst.   s( 5) = (     0         -1          0      )    f =(  0.2500000 )
                  (    -1          0          0      )       (  0.2500000 )
                  (     0          0         -1      )       (  0.2500000 )

 cart.    s( 5) = (  0.0000000  1.0000000  0.0000000 )    f =( -0.2500000 )
                  (  1.0000000  0.0000000  0.0000000 )       (  0.2500000 )
                  (  0.0000000  0.0000000 -1.0000000 )       (  0.2500000 )


      isym =  6     180 deg rotation - cart. axis [1,-1,0]       

 cryst.   s( 6) = (    -1          0          1      )    f =(  0.2500000 )
                  (     0         -1          1      )       (  0.2500000 )
                  (     0          0          1      )       (  0.2500000 )

 cart.    s( 6) = (  0.0000000 -1.0000000  0.0000000 )    f =( -0.2500000 )
                  ( -1.0000000  0.0000000  0.0000000 )       (  0.2500000 )
                  (  0.0000000  0.0000000 -1.0000000 )       (  0.2500000 )


      isym =  7      90 deg rotation - cart. axis [0,0,-1]       

 cryst.   s( 7) = (     0          1          0      )    f =(  0.2500000 )
                  (     0          1         -1      )       (  0.2500000 )
                  (    -1          1          0      )       (  0.2500000 )

 cart.    s( 7) = (  0.0000000  1.0000000  0.0000000 )    f =( -0.2500000 )
                  ( -1.0000000  0.0000000  0.0000000 )       (  0.2500000 )
                  (  0.0000000  0.0000000  1.0000000 )       (  0.2500000 )


      isym =  8      90 deg rotation - cart. axis [0,0,1]        

 cryst.   s( 8) = (     1          0         -1      )    f =(  0.2500000 )
                  (     1          0          0      )       (  0.2500000 )
                  (     1         -1          0      )       (  0.2500000 )

 cart.    s( 8) = (  0.0000000 -1.0000000  0.0000000 )    f =( -0.2500000 )
                  (  1.0000000  0.0000000  0.0000000 )       (  0.2500000 )
                  (  0.0000000  0.0000000  1.0000000 )       (  0.2500000 )


      isym =  9     180 deg rotation - cart. axis [1,0,1]        

 cryst.   s( 9) = (    -1          0          0      )    f =(  0.2500000 )
                  (     0          0         -1      )       (  0.2500000 )
                  (     0         -1          0      )       (  0.2500000 )

 cart.    s( 9) = (  0.0000000  0.0000000  1.0000000 )    f =( -0.2500000 )
                  (  0.0000000 -1.0000000  0.0000000 )       (  0.2500000 )
                  (  1.0000000  0.0000000  0.0000000 )       (  0.2500000 )


      isym = 10     180 deg rotation - cart. axis [-1,0,1]       

 cryst.   s(10) = (     1          0          0      )    f =(  0.2500000 )
                  (     1         -1          0      )       (  0.2500000 )
                  (     1          0         -1      )       (  0.2500000 )

 cart.    s(10) = (  0.0000000  0.0000000 -1.0000000 )    f =( -0.2500000 )
                  (  0.0000000 -1.0000000  0.0000000 )       (  0.2500000 )
                  ( -1.0000000  0.0000000  0.0000000 )       (  0.2500000 )


      isym = 11      90 deg rotation - cart. axis [0,1,0]        

 cryst.   s(11) = (     0          1         -1      )    f =(  0.2500000 )
                  (    -1          1          0      )       (  0.2500000 )
                  (     0          1          0      )       (  0.2500000 )

 cart.    s(11) = (  0.0000000  0.0000000  1.0000000 )    f =( -0.2500000 )
                  (  0.0000000  1.0000000  0.0000000 )       (  0.2500000 )
                  ( -1.0000000  0.0000000  0.0000000 )       (  0.2500000 )


      isym = 12      90 deg rotation - cart. axis [0,-1,0]       

 cryst.   s(12) = (     0         -1          1      )    f =(  0.2500000 )
                  (     0          0          1      )       (  0.2500000 )
                  (    -1          0          1      )       (  0.2500000 )

 cart.    s(12) = (  0.0000000  0.0000000 -1.0000000 )    f =( -0.2500000 )
                  (  0.0000000  1.0000000  0.0000000 )       (  0.2500000 )
                  (  1.0000000  0.0000000  0.0000000 )       (  0.2500000 )


      isym = 13     180 deg rotation - cart. axis [0,1,1]        

 cryst.   s(13) = (    -1          1          0      )    f =(  0.2500000 )
                  (     0          1          0      )       (  0.2500000 )
                  (     0          1         -1      )       (  0.2500000 )

 cart.    s(13) = ( -1.0000000  0.0000000  0.0000000 )    f =( -0.2500000 )
                  (  0.0000000  0.0000000  1.0000000 )       (  0.2500000 )
                  (  0.0000000  1.0000000  0.0000000 )       (  0.2500000 )


      isym = 14     180 deg rotation - cart. axis [0,1,-1]       

 cryst.   s(14) = (     0          0         -1      )    f =(  0.2500000 )
                  (     0         -1          0      )       (  0.2500000 )
                  (    -1          0          0      )       (  0.2500000 )

 cart.    s(14) = ( -1.0000000  0.0000000  0.0000000 )    f =( -0.2500000 )
                  (  0.0000000  0.0000000 -1.0000000 )       (  0.2500000 )
                  (  0.0000000 -1.0000000  0.0000000 )       (  0.2500000 )


      isym = 15      90 deg rotation - cart. axis [-1,0,0]       

 cryst.   s(15) = (     0          0          1      )    f =(  0.2500000 )
                  (    -1          0          1      )       (  0.2500000 )
                  (     0         -1          1      )       (  0.2500000 )

 cart.    s(15) = (  1.0000000  0.0000000  0.0000000 )    f =( -0.2500000 )
                  (  0.0000000  0.0000000  1.0000000 )       (  0.2500000 )
                  (  0.0000000 -1.0000000  0.0000000 )       (  0.2500000 )


      isym = 16      90 deg rotation - cart. axis [1,0,0]        

 cryst.   s(16) = (     1         -1          0      )    f =(  0.2500000 )
                  (     1          0         -1      )       (  0.2500000 )
                  (     1          0          0      )       (  0.2500000 )

 cart.    s(16) = (  1.0000000  0.0000000  0.0000000 )    f =( -0.2500000 )
                  (  0.0000000  0.0000000 -1.0000000 )       (  0.2500000 )
                  (  0.0000000  1.0000000  0.0000000 )       (  0.2500000 )


      isym = 17     120 deg rotation - cart. axis [-1,-1,-1]     

 cryst.   s(17) = (    -1          0          1      )
                  (    -1          1          0      )
                  (    -1          0          0      )

 cart.    s(17) = (  0.0000000  1.0000000  0.0000000 )
                  (  0.0000000  0.0000000  1.0000000 )
                  (  1.0000000  0.0000000  0.0000000 )


      isym = 18     120 deg rotation - cart. axis [-1,1,1]       

 cryst.   s(18) = (     0          1          0      )
                  (     0          0          1      )
                  (     1          0          0      )

 cart.    s(18) = (  0.0000000 -1.0000000  0.0000000 )
                  (  0.0000000  0.0000000  1.0000000 )
                  ( -1.0000000  0.0000000  0.0000000 )


      isym = 19     120 deg rotation - cart. axis [1,1,-1]       

 cryst.   s(19) = (     1          0         -1      )
                  (     0          0         -1      )
                  (     0          1         -1      )

 cart.    s(19) = (  0.0000000  1.0000000  0.0000000 )
                  (  0.0000000  0.0000000 -1.0000000 )
                  ( -1.0000000  0.0000000  0.0000000 )


      isym = 20     120 deg rotation - cart. axis [1,-1,1]       

 cryst.   s(20) = (     0         -1          0      )
                  (     1         -1          0      )
                  (     0         -1          1      )

 cart.    s(20) = (  0.0000000 -1.0000000  0.0000000 )
                  (  0.0000000  0.0000000 -1.0000000 )
                  (  1.0000000  0.0000000  0.0000000 )


      isym = 21     120 deg rotation - cart. axis [1,1,1]        

 cryst.   s(21) = (     0          0         -1      )
                  (     0          1         -1      )
                  (     1          0         -1      )

 cart.    s(21) = (  0.0000000  0.0000000  1.0000000 )
                  (  1.0000000  0.0000000  0.0000000 )
                  (  0.0000000  1.0000000  0.0000000 )


      isym = 22     120 deg rotation - cart. axis [-1,1,-1]      

 cryst.   s(22) = (    -1          1          0      )
                  (    -1          0          0      )
                  (    -1          0          1      )

 cart.    s(22) = (  0.0000000  0.0000000  1.0000000 )
                  ( -1.0000000  0.0000000  0.0000000 )
                  (  0.0000000 -1.0000000  0.0000000 )


      isym = 23     120 deg rotation - cart. axis [1,-1,-1]      

 cryst.   s(23) = (     0          0          1      )
                  (     1          0          0      )
                  (     0          1          0      )

 cart.    s(23) = (  0.0000000  0.0000000 -1.0000000 )
                  ( -1.0000000  0.0000000  0.0000000 )
                  (  0.0000000  1.0000000  0.0000000 )


      isym = 24     120 deg rotation - cart. axis [-1,-1,1]      

 cryst.   s(24) = (     1         -1          0      )
                  (     0         -1          1      )
                  (     0         -1          0      )

 cart.    s(24) = (  0.0000000  0.0000000 -1.0000000 )
                  (  1.0000000  0.0000000  0.0000000 )
                  (  0.0000000 -1.0000000  0.0000000 )


      isym = 25     inversion                                    

 cryst.   s(25) = (    -1          0          0      )    f =(  0.2500000 )
                  (     0         -1          0      )       (  0.2500000 )
                  (     0          0         -1      )       (  0.2500000 )

 cart.    s(25) = ( -1.0000000  0.0000000  0.0000000 )    f =( -0.2500000 )
                  (  0.0000000 -1.0000000  0.0000000 )       (  0.2500000 )
                  (  0.0000000  0.0000000 -1.0000000 )       (  0.2500000 )


      isym = 26     inv. 180 deg rotation - cart. axis [0,0,1]   

 cryst.   s(26) = (     0         -1          1      )    f =(  0.2500000 )
                  (    -1          0          1      )       (  0.2500000 )
                  (     0          0          1      )       (  0.2500000 )

 cart.    s(26) = (  1.0000000  0.0000000  0.0000000 )    f =( -0.2500000 )
                  (  0.0000000  1.0000000  0.0000000 )       (  0.2500000 )
                  (  0.0000000  0.0000000 -1.0000000 )       (  0.2500000 )


      isym = 27     inv. 180 deg rotation - cart. axis [0,1,0]   

 cryst.   s(27) = (     1          0          0      )    f =(  0.2500000 )
                  (     1          0         -1      )       (  0.2500000 )
                  (     1         -1          0      )       (  0.2500000 )

 cart.    s(27) = (  1.0000000  0.0000000  0.0000000 )    f =( -0.2500000 )
                  (  0.0000000 -1.0000000  0.0000000 )       (  0.2500000 )
                  (  0.0000000  0.0000000  1.0000000 )       (  0.2500000 )


      isym = 28     inv. 180 deg rotation - cart. axis [1,0,0]   

 cryst.   s(28) = (     0          1         -1      )    f =(  0.2500000 )
                  (     0          1          0      )       (  0.2500000 )
                  (    -1          1          0      )       (  0.2500000 )

 cart.    s(28) = ( -1.0000000  0.0000000  0.0000000 )    f =( -0.2500000 )
                  (  0.0000000  1.0000000  0.0000000 )       (  0.2500000 )
                  (  0.0000000  0.0000000  1.0000000 )       (  0.2500000 )


      isym = 29     inv. 180 deg rotation - cart. axis [1,1,0]   

 cryst.   s(29) = (     0          1          0      )
                  (     1          0          0      )
                  (     0          0          1      )

 cart.    s(29) = (  0.0000000 -1.0000000  0.0000000 )
                  ( -1.0000000  0.0000000  0.0000000 )
                  (  0.0000000  0.0000000  1.0000000 )


      isym = 30     inv. 180 deg rotation - cart. axis [1,-1,0]  

 cryst.   s(30) = (     1          0         -1      )
                  (     0          1         -1      )
                  (     0          0         -1      )

 cart.    s(30) = (  0.0000000  1.0000000  0.0000000 )
                  (  1.0000000  0.0000000  0.0000000 )
                  (  0.0000000  0.0000000  1.0000000 )


      isym = 31     inv.  90 deg rotation - cart. axis [0,0,-1]  

 cryst.   s(31) = (     0         -1          0      )
                  (     0         -1          1      )
                  (     1         -1          0      )

 cart.    s(31) = (  0.0000000 -1.0000000  0.0000000 )
                  (  1.0000000  0.0000000  0.0000000 )
                  (  0.0000000  0.0000000 -1.0000000 )


      isym = 32     inv.  90 deg rotation - cart. axis [0,0,1]   

 cryst.   s(32) = (    -1          0          1      )
                  (    -1          0          0      )
                  (    -1          1          0      )

 cart.    s(32) = (  0.0000000  1.0000000  0.0000000 )
                  ( -1.0000000  0.0000000  0.0000000 )
                  (  0.0000000  0.0000000 -1.0000000 )


      isym = 33     inv. 180 deg rotation - cart. axis [1,0,1]   

 cryst.   s(33) = (     1          0          0      )
                  (     0          0          1      )
                  (     0          1          0      )

 cart.    s(33) = (  0.0000000  0.0000000 -1.0000000 )
                  (  0.0000000  1.0000000  0.0000000 )
                  ( -1.0000000  0.0000000  0.0000000 )


      isym = 34     inv. 180 deg rotation - cart. axis [-1,0,1]  

 cryst.   s(34) = (    -1          0          0      )
                  (    -1          1          0      )
                  (    -1          0          1      )

 cart.    s(34) = (  0.0000000  0.0000000  1.0000000 )
                  (  0.0000000  1.0000000  0.0000000 )
                  (  1.0000000  0.0000000  0.0000000 )


      isym = 35     inv.  90 deg rotation - cart. axis [0,1,0]   

 cryst.   s(35) = (     0         -1          1      )
                  (     1         -1          0      )
                  (     0         -1          0      )

 cart.    s(35) = (  0.0000000  0.0000000 -1.0000000 )
                  (  0.0000000 -1.0000000  0.0000000 )
                  (  1.0000000  0.0000000  0.0000000 )


      isym = 36     inv.  90 deg rotation - cart. axis [0,-1,0]  

 cryst.   s(36) = (     0          1         -1      )
                  (     0          0         -1      )
                  (     1          0         -1      )

 cart.    s(36) = (  0.0000000  0.0000000  1.0000000 )
                  (  0.0000000 -1.0000000  0.0000000 )
                  ( -1.0000000  0.0000000  0.0000000 )


      isym = 37     inv. 180 deg rotation - cart. axis [0,1,1]   

 cryst.   s(37) = (     1         -1          0      )
                  (     0         -1          0      )
                  (     0         -1          1      )

 cart.    s(37) = (  1.0000000  0.0000000  0.0000000 )
                  (  0.0000000  0.0000000 -1.0000000 )
                  (  0.0000000 -1.0000000  0.0000000 )


      isym = 38     inv. 180 deg rotation - cart. axis [0,1,-1]  

 cryst.   s(38) = (     0          0          1      )
                  (     0          1          0      )
                  (     1          0          0      )

 cart.    s(38) = (  1.0000000  0.0000000  0.0000000 )
                  (  0.0000000  0.0000000  1.0000000 )
                  (  0.0000000  1.0000000  0.0000000 )


      isym = 39     inv.  90 deg rotation - cart. axis [-1,0,0]  

 cryst.   s(39) = (     0          0         -1      )
                  (     1          0         -1      )
                  (     0          1         -1      )

 cart.    s(39) = ( -1.0000000  0.0000000  0.0000000 )
                  (  0.0000000  0.0000000 -1.0000000 )
                  (  0.0000000  1.0000000  0.0000000 )


      isym = 40     inv.  90 deg rotation - cart. axis [1,0,0]   

 cryst.   s(40) = (    -1          1          0      )
                  (    -1          0          1      )
                  (    -1          0          0      )

 cart.    s(40) = ( -1.0000000  0.0000000  0.0000000 )
                  (  0.0000000  0.0000000  1.0000000 )
                  (  0.0000000 -1.0000000  0.0000000 )


      isym = 41     inv. 120 deg rotation - cart. axis [-1,-1,-1]

 cryst.   s(41) = (     1          0         -1      )    f =(  0.2500000 )
                  (     1         -1          0      )       (  0.2500000 )
                  (     1          0          0      )       (  0.2500000 )

 cart.    s(41) = (  0.0000000 -1.0000000  0.0000000 )    f =( -0.2500000 )
                  (  0.0000000  0.0000000 -1.0000000 )       (  0.2500000 )
                  ( -1.0000000  0.0000000  0.0000000 )       (  0.2500000 )


      isym = 42     inv. 120 deg rotation - cart. axis [-1,1,1]  

 cryst.   s(42) = (     0         -1          0      )    f =(  0.2500000 )
                  (     0          0         -1      )       (  0.2500000 )
                  (    -1          0          0      )       (  0.2500000 )

 cart.    s(42) = (  0.0000000  1.0000000  0.0000000 )    f =( -0.2500000 )
                  (  0.0000000  0.0000000 -1.0000000 )       (  0.2500000 )
                  (  1.0000000  0.0000000  0.0000000 )       (  0.2500000 )


      isym = 43     inv. 120 deg rotation - cart. axis [1,1,-1]  

 cryst.   s(43) = (    -1          0          1      )    f =(  0.2500000 )
                  (     0          0          1      )       (  0.2500000 )
                  (     0         -1          1      )       (  0.2500000 )

 cart.    s(43) = (  0.0000000 -1.0000000  0.0000000 )    f =( -0.2500000 )
                  (  0.0000000  0.0000000  1.0000000 )       (  0.2500000 )
                  (  1.0000000  0.0000000  0.0000000 )       (  0.2500000 )


      isym = 44     inv. 120 deg rotation - cart. axis [1,-1,1]  

 cryst.   s(44) = (     0          1          0      )    f =(  0.2500000 )
                  (    -1          1          0      )       (  0.2500000 )
                  (     0          1         -1      )       (  0.2500000 )

 cart.    s(44) = (  0.0000000  1.0000000  0.0000000 )    f =( -0.2500000 )
                  (  0.0000000  0.0000000  1.0000000 )       (  0.2500000 )
                  ( -1.0000000  0.0000000  0.0000000 )       (  0.2500000 )


      isym = 45     inv. 120 deg rotation - cart. axis [1,1,1]   

 cryst.   s(45) = (     0          0          1      )    f =(  0.2500000 )
                  (     0         -1          1      )       (  0.2500000 )
                  (    -1          0          1      )       (  0.2500000 )

 cart.    s(45) = (  0.0000000  0.0000000 -1.0000000 )    f =( -0.2500000 )
                  ( -1.0000000  0.0000000  0.0000000 )       (  0.2500000 )
                  (  0.0000000 -1.0000000  0.0000000 )       (  0.2500000 )


      isym = 46     inv. 120 deg rotation - cart. axis [-1,1,-1] 

 cryst.   s(46) = (     1         -1          0      )    f =(  0.2500000 )
                  (     1          0          0      )       (  0.2500000 )
                  (     1          0         -1      )       (  0.2500000 )

 cart.    s(46) = (  0.0000000  0.0000000 -1.0000000 )    f =( -0.2500000 )
                  (  1.0000000  0.0000000  0.0000000 )       (  0.2500000 )
                  (  0.0000000  1.0000000  0.0000000 )       (  0.2500000 )


      isym = 47     inv. 120 deg rotation - cart. axis [1,-1,-1] 

 cryst.   s(47) = (     0          0         -1      )    f =(  0.2500000 )
                  (    -1          0          0      )       (  0.2500000 )
                  (     0         -1          0      )       (  0.2500000 )

 cart.    s(47) = (  0.0000000  0.0000000  1.0000000 )    f =( -0.2500000 )
                  (  1.0000000  0.0000000  0.0000000 )       (  0.2500000 )
                  (  0.0000000 -1.0000000  0.0000000 )       (  0.2500000 )


      isym = 48     inv. 120 deg rotation - cart. axis [-1,-1,1] 

 cryst.   s(48) = (    -1          1          0      )    f =(  0.2500000 )
                  (     0          1         -1      )       (  0.2500000 )
                  (     0          1          0      )       (  0.2500000 )

 cart.    s(48) = (  0.0000000  0.0000000  1.0000000 )    f =( -0.2500000 )
                  ( -1.0000000  0.0000000  0.0000000 )       (  0.2500000 )
                  (  0.0000000  1.0000000  0.0000000 )       (  0.2500000 )


     point group O_h (m-3m) 
     there are 10 classes
     the character table:

       E     8C3   3C2   6C4   6C2'  i     8S6   3s_h  6S4   6s_d 
A_1g   1.00  1.00  1.00  1.00  1.00  1.00  1.00  1.00  1.00  1.00
A_2g   1.00  1.00  1.00 -1.00 -1.00  1.00  1.00  1.00 -1.00 -1.00
E_g    2.00 -1.00  2.00  0.00  0.00  2.00 -1.00  2.00  0.00  0.00
T_1g   3.00  0.00 -1.00  1.00 -1.00  3.00  0.00 -1.00  1.00 -1.00
T_2g   3.00  0.00 -1.00 -1.00  1.00  3.00  0.00 -1.00 -1.00  1.00
A_1u   1.00  1.00  1.00  1.00  1.00 -1.00 -1.00 -1.00 -1.00 -1.00
A_2u   1.00  1.00  1.00 -1.00 -1.00 -1.00 -1.00 -1.00  1.00  1.00
E_u    2.00 -1.00  2.00  0.00  0.00 -2.00  1.00 -2.00  0.00  0.00
T_1u   3.00  0.00 -1.00  1.00 -1.00 -3.00  0.00  1.00 -1.00  1.00
T_2u   3.00  0.00 -1.00 -1.00  1.00 -3.00  0.00  1.00  1.00 -1.00

     the symmetry operations in each class and the name of the first element:

     E        1
          identity                                               
     8C3     17   19   20   18   24   21   22   23
          120 deg rotation - cart. axis [-1,-1,-1]               
     3C2      2    4    3
          180 deg rotation - cart. axis [0,0,1]                  
     6C4      7    8   15   16   12   11
           90 deg rotation - cart. axis [0,0,-1]                 
     6C2'     5    6   14   13   10    9
          180 deg rotation - cart. axis [1,1,0]                  
     i       25
          inversion                                              
     8S6     41   43   44   42   48   45   46   47
          inv. 120 deg rotation - cart. axis [-1,-1,-1]          
     3s_h    26   28   27
          inv. 180 deg rotation - cart. axis [0,0,1]             
     6S4     31   32   39   40   36   35
          inv.  90 deg rotation - cart. axis [0,0,-1]            
     6s_d    29   30   38   37   34   33
          inv. 180 deg rotation - cart. axis [1,1,0]             

   Cartesian axes

     site n.     atom                  positions (alat units)
         1           Si  tau(   1) = (   0.0000000   0.0000000   0.0000000  )
         2           Si  tau(   2) = (   0.2500000   0.2500000   0.2500000  )

   Crystallographic axes

     site n.     atom                  positions (cryst. coord.)
         1           Si  tau(   1) = (  0.0000000  0.0000000  0.0000000  )
         2           Si  tau(   2) = ( -0.2500000  0.7500000 -0.2500000  )

     number of k points=    91
                       cart. coord. in units 2pi/alat
        k(    1) = (   0.5000000   0.5000000   0.5000000), wk =   0.0219780
        k(    2) = (   0.4750000   0.4750000   0.4750000), wk =   0.0219780
        k(    3) = (   0.4500000   0.4500000   0.4500000), wk =   0.0219780
        k(    4) = (   0.4250000   0.4250000   0.4250000), wk =   0.0219780
        k(    5) = (   0.4000000   0.4000000   0.4000000), wk =   0.0219780
        k(    6) = (   0.3750000   0.3750000   0.3750000), wk =   0.0219780
        k(    7) = (   0.3500000   0.3500000   0.3500000), wk =   0.0219780
        k(    8) = (   0.3250000   0.3250000   0.3250000), wk =   0.0219780
        k(    9) = (   0.3000000   0.3000000   0.3000000), wk =   0.0219780
        k(   10) = (   0.2750000   0.2750000   0.2750000), wk =   0.0219780
        k(   11) = (   0.2500000   0.2500000   0.2500000), wk =   0.0219780
        k(   12) = (   0.2250000   0.2250000   0.2250000), wk =   0.0219780
        k(   13) = (   0.2000000   0.2000000   0.2000000), wk =   0.0219780
        k(   14) = (   0.1750000   0.1750000   0.1750000), wk =   0.0219780
        k(   15) = (   0.1500000   0.1500000   0.1500000), wk =   0.0219780
        k(   16) = (   0.1250000   0.1250000   0.1250000), wk =   0.0219780
        k(   17) = (   0.1000000   0.1000000   0.1000000), wk =   0.0219780
        k(   18) = (   0.0750000   0.0750000   0.0750000), wk =   0.0219780
        k(   19) = (   0.0500000   0.0500000   0.0500000), wk =   0.0219780
        k(   20) = (   0.0250000   0.0250000   0.0250000), wk =   0.0219780
        k(   21) = (   0.0000000   0.0000000   0.0000000), wk =   0.0219780
        k(   22) = (   0.0333333   0.0000000   0.0000000), wk =   0.0219780
        k(   23) = (   0.0666667   0.0000000   0.0000000), wk =   0.0219780
        k(   24) = (   0.1000000   0.0000000   0.0000000), wk =   0.0219780
        k(   25) = (   0.1333333   0.0000000   0.0000000), wk =   0.0219780
        k(   26) = (   0.1666667   0.0000000   0.0000000), wk =   0.0219780
        k(   27) = (   0.2000000   0.0000000   0.0000000), wk =   0.0219780
        k(   28) = (   0.2333333   0.0000000   0.0000000), wk =   0.0219780
        k(   29) = (   0.2666667   0.0000000   0.0000000), wk =   0.0219780
        k(   30) = (   0.3000000   0.0000000   0.0000000), wk =   0.0219780
        k(   31) = (   0.3333333   0.0000000   0.0000000), wk =   0.0219780
        k(   32) = (   0.3666667   0.0000000   0.0000000), wk =   0.0219780
        k(   33) = (   0.4000000   0.0000000   0.0000000), wk =   0.0219780
        k(   34) = (   0.4333333   0.0000000   0.0000000), wk =   0.0219780
        k(   35) = (   0.4666667   0.0000000   0.0000000), wk =   0.0219780
        k(   36) = (   0.5000000   0.0000000   0.0000000), wk =   0.0219780
        k(   37) = (   0.5333333   0.0000000   0.0000000), wk =   0.0219780
        k(   38) = (   0.5666667   0.0000000   0.0000000), wk =   0.0219780
        k(   39) = (   0.6000000   0.0000000   0.0000000), wk =   0.0219780
        k(   40) = (   0.6333333   0.0000000   0.0000000), wk =   0.0219780
        k(   41) = (   0.6666667   0.0000000   0.0000000), wk =   0.0219780
        k(   42) = (   0.7000000   0.0000000   0.0000000), wk =   0.0219780
        k(   43) = (   0.7333333   0.0000000   0.0000000), wk =   0.0219780
        k(   44) = (   0.7666667   0.0000000   0.0000000), wk =   0.0219780
        k(   45) = (   0.8000000   0.0000000   0.0000000), wk =   0.0219780
        k(   46) = (   0.8333333   0.0000000   0.0000000), wk =   0.0219780
        k(   47) = (   0.8666667   0.0000000   0.0000000), wk =   0.0219780
        k(   48) = (   0.9000000   0.0000000   0.0000000), wk =   0.0219780
        k(   49) = (   0.9333333   0.0000000   0.0000000), wk =   0.0219780
        k(   50) = (   0.9666667   0.0000000   0.0000000), wk =   0.0219780
        k(   51) = (   1.0000000   0.0000000   0.0000000), wk =   0.0219780
        k(   52) = (   1.0000000   0.0250000   0.0250000), wk =   0.0219780
        k(   53) = (   1.0000000   0.0500000   0.0500000), wk =   0.0219780
        k(   54) = (   1.0000000   0.0750000   0.0750000), wk =   0.0219780
        k(   55) = (   1.0000000   0.1000000   0.1000000), wk =   0.0219780
        k(   56) = (   1.0000000   0.1250000   0.1250000), wk =   0.0219780
        k(   57) = (   1.0000000   0.1500000   0.1500000), wk =   0.0219780
        k(   58) = (   1.0000000   0.1750000   0.1750000), wk =   0.0219780
        k(   59) = (   1.0000000   0.2000000   0.2000000), wk =   0.0219780
        k(   60) = (   1.0000000   0.2250000   0.2250000), wk =   0.0219780
        k(   61) = (   1.0000000   0.2500000   0.2500000), wk =   0.0219780
        k(   62) = (   0.9666667   0.2416667   0.2416667), wk =   0.0219780
        k(   63) = (   0.9333333   0.2333333   0.2333333), wk =   0.0219780
        k(   64) = (   0.9000000   0.2250000   0.2250000), wk =   0.0219780
        k(   65) = (   0.8666667   0.2166667   0.2166667), wk =   0.0219780
        k(   66) = (   0.8333333   0.2083333   0.2083333), wk =   0.0219780
        k(   67) = (   0.8000000   0.2000000   0.2000000), wk =   0.0219780
        k(   68) = (   0.7666667   0.1916667   0.1916667), wk =   0.0219780
        k(   69) = (   0.7333333   0.1833333   0.1833333), wk =   0.0219780
        k(   70) = (   0.7000000   0.1750000   0.1750000), wk =   0.0219780
        k(   71) = (   0.6666667   0.1666667   0.1666667), wk =   0.0219780
        k(   72) = (   0.6333333   0.1583333   0.1583333), wk =   0.0219780
        k(   73) = (   0.6000000   0.1500000   0.1500000), wk =   0.0219780
        k(   74) = (   0.5666667   0.1416667   0.1416667), wk =   0.0219780
        k(   75) = (   0.5333333   0.1333333   0.1333333), wk =   0.0219780
        k(   76) = (   0.5000000   0.1250000   0.1250000), wk =   0.0219780
        k(   77) = (   0.4666667   0.1166667   0.1166667), wk =   0.0219780
        k(   78) = (   0.4333333   0.1083333   0.1083333), wk =   0.0219780
        k(   79) = (   0.4000000   0.1000000   0.1000000), wk =   0.0219780
        k(   80) = (   0.3666667   0.0916667   0.0916667), wk =   0.0219780
        k(   81) = (   0.3333333   0.0833333   0.0833333), wk =   0.0219780
        k(   82) = (   0.3000000   0.0750000   0.0750000), wk =   0.0219780
        k(   83) = (   0.2666667   0.0666667   0.0666667), wk =   0.0219780
        k(   84) = (   0.2333333   0.0583333   0.0583333), wk =   0.0219780
        k(   85) = (   0.2000000   0.0500000   0.0500000), wk =   0.0219780
        k(   86) = (   0.1666667   0.0416667   0.0416667), wk =   0.0219780
        k(   87) = (   0.1333333   0.0333333   0.0333333), wk =   0.0219780
        k(   88) = (   0.1000000   0.0250000   0.0250000), wk =   0.0219780
        k(   89) = (   0.0666667   0.0166667   0.0166667), wk =   0.0219780
        k(   90) = (   0.0333333   0.0083333   0.0083333), wk =   0.0219780
        k(   91) = (   0.0000000   0.0000000   0.0000000), wk =   0.0219780

                       cryst. coord.
        k(    1) = (   0.0000000   0.5000000   0.0000000), wk =   0.0219780
        k(    2) = (   0.0000000   0.4750000   0.0000000), wk =   0.0219780
        k(    3) = (   0.0000000   0.4500000   0.0000000), wk =   0.0219780
        k(    4) = (   0.0000000   0.4250000   0.0000000), wk =   0.0219780
        k(    5) = (   0.0000000   0.4000000   0.0000000), wk =   0.0219780
        k(    6) = (   0.0000000   0.3750000   0.0000000), wk =   0.0219780
        k(    7) = (   0.0000000   0.3500000   0.0000000), wk =   0.0219780
        k(    8) = (   0.0000000   0.3250000   0.0000000), wk =   0.0219780
        k(    9) = (   0.0000000   0.3000000   0.0000000), wk =   0.0219780
        k(   10) = (   0.0000000   0.2750000   0.0000000), wk =   0.0219780
        k(   11) = (   0.0000000   0.2500000   0.0000000), wk =   0.0219780
        k(   12) = (   0.0000000   0.2250000   0.0000000), wk =   0.0219780
        k(   13) = (   0.0000000   0.2000000   0.0000000), wk =   0.0219780
        k(   14) = (   0.0000000   0.1750000   0.0000000), wk =   0.0219780
        k(   15) = (   0.0000000   0.1500000   0.0000000), wk =   0.0219780
        k(   16) = (   0.0000000   0.1250000   0.0000000), wk =   0.0219780
        k(   17) = (   0.0000000   0.1000000   0.0000000), wk =   0.0219780
        k(   18) = (   0.0000000   0.0750000   0.0000000), wk =   0.0219780
        k(   19) = (   0.0000000   0.0500000   0.0000000), wk =   0.0219780
        k(   20) = (   0.0000000   0.0250000   0.0000000), wk =   0.0219780
        k(   21) = (   0.0000000   0.0000000   0.0000000), wk =   0.0219780
        k(   22) = (  -0.0166667   0.0000000  -0.0166667), wk =   0.0219780
        k(   23) = (  -0.0333333   0.0000000  -0.0333333), wk =   0.0219780
        k(   24) = (  -0.0500000   0.0000000  -0.0500000), wk =   0.0219780
        k(   25) = (  -0.0666667   0.0000000  -0.0666667), wk =   0.0219780
        k(   26) = (  -0.0833333   0.0000000  -0.0833333), wk =   0.0219780
        k(   27) = (  -0.1000000   0.0000000  -0.1000000), wk =   0.0219780
        k(   28) = (  -0.1166667   0.0000000  -0.1166667), wk =   0.0219780
        k(   29) = (  -0.1333333   0.0000000  -0.1333333), wk =   0.0219780
        k(   30) = (  -0.1500000   0.0000000  -0.1500000), wk =   0.0219780
        k(   31) = (  -0.1666667   0.0000000  -0.1666667), wk =   0.0219780
        k(   32) = (  -0.1833333   0.0000000  -0.1833333), wk =   0.0219780
        k(   33) = (  -0.2000000   0.0000000  -0.2000000), wk =   0.0219780
        k(   34) = (  -0.2166667   0.0000000  -0.2166667), wk =   0.0219780
        k(   35) = (  -0.2333333   0.0000000  -0.2333333), wk =   0.0219780
        k(   36) = (  -0.2500000   0.0000000  -0.2500000), wk =   0.0219780
        k(   37) = (  -0.2666667   0.0000000  -0.2666667), wk =   0.0219780
        k(   38) = (  -0.2833333   0.0000000  -0.2833333), wk =   0.0219780
        k(   39) = (  -0.3000000   0.0000000  -0.3000000), wk =   0.0219780
        k(   40) = (  -0.3166667   0.0000000  -0.3166667), wk =   0.0219780
        k(   41) = (  -0.3333333   0.0000000  -0.3333333), wk =   0.0219780
        k(   42) = (  -0.3500000   0.0000000  -0.3500000), wk =   0.0219780
        k(   43) = (  -0.3666667   0.0000000  -0.3666667), wk =   0.0219780
        k(   44) = (  -0.3833333   0.0000000  -0.3833333), wk =   0.0219780
        k(   45) = (  -0.4000000   0.0000000  -0.4000000), wk =   0.0219780
        k(   46) = (  -0.4166667   0.0000000  -0.4166667), wk =   0.0219780
        k(   47) = (  -0.4333333   0.0000000  -0.4333333), wk =   0.0219780
        k(   48) = (  -0.4500000   0.0000000  -0.4500000), wk =   0.0219780
        k(   49) = (  -0.4666667   0.0000000  -0.4666667), wk =   0.0219780
        k(   50) = (  -0.4833333   0.0000000  -0.4833333), wk =   0.0219780
        k(   51) = (  -0.5000000   0.0000000  -0.5000000), wk =   0.0219780
        k(   52) = (  -0.4875000   0.0250000  -0.4875000), wk =   0.0219780
        k(   53) = (  -0.4750000   0.0500000  -0.4750000), wk =   0.0219780
        k(   54) = (  -0.4625000   0.0750000  -0.4625000), wk =   0.0219780
        k(   55) = (  -0.4500000   0.1000000  -0.4500000), wk =   0.0219780
        k(   56) = (  -0.4375000   0.1250000  -0.4375000), wk =   0.0219780
        k(   57) = (  -0.4250000   0.1500000  -0.4250000), wk =   0.0219780
        k(   58) = (  -0.4125000   0.1750000  -0.4125000), wk =   0.0219780
        k(   59) = (  -0.4000000   0.2000000  -0.4000000), wk =   0.0219780
        k(   60) = (  -0.3875000   0.2250000  -0.3875000), wk =   0.0219780
        k(   61) = (  -0.3750000   0.2500000  -0.3750000), wk =   0.0219780
        k(   62) = (  -0.3625000   0.2416667  -0.3625000), wk =   0.0219780
        k(   63) = (  -0.3500000   0.2333333  -0.3500000), wk =   0.0219780
        k(   64) = (  -0.3375000   0.2250000  -0.3375000), wk =   0.0219780
        k(   65) = (  -0.3250000   0.2166667  -0.3250000), wk =   0.0219780
        k(   66) = (  -0.3125000   0.2083333  -0.3125000), wk =   0.0219780
        k(   67) = (  -0.3000000   0.2000000  -0.3000000), wk =   0.0219780
        k(   68) = (  -0.2875000   0.1916667  -0.2875000), wk =   0.0219780
        k(   69) = (  -0.2750000   0.1833333  -0.2750000), wk =   0.0219780
        k(   70) = (  -0.2625000   0.1750000  -0.2625000), wk =   0.0219780
        k(   71) = (  -0.2500000   0.1666667  -0.2500000), wk =   0.0219780
        k(   72) = (  -0.2375000   0.1583333  -0.2375000), wk =   0.0219780
        k(   73) = (  -0.2250000   0.1500000  -0.2250000), wk =   0.0219780
        k(   74) = (  -0.2125000   0.1416667  -0.2125000), wk =   0.0219780
        k(   75) = (  -0.2000000   0.1333333  -0.2000000), wk =   0.0219780
        k(   76) = (  -0.1875000   0.1250000  -0.1875000), wk =   0.0219780
        k(   77) = (  -0.1750000   0.1166667  -0.1750000), wk =   0.0219780
        k(   78) = (  -0.1625000   0.1083333  -0.1625000), wk =   0.0219780
        k(   79) = (  -0.1500000   0.1000000  -0.1500000), wk =   0.0219780
        k(   80) = (  -0.1375000   0.0916667  -0.1375000), wk =   0.0219780
        k(   81) = (  -0.1250000   0.0833333  -0.1250000), wk =   0.0219780
        k(   82) = (  -0.1125000   0.0750000  -0.1125000), wk =   0.0219780
        k(   83) = (  -0.1000000   0.0666667  -0.1000000), wk =   0.0219780
        k(   84) = (  -0.0875000   0.0583333  -0.0875000), wk =   0.0219780
        k(   85) = (  -0.0750000   0.0500000  -0.0750000), wk =   0.0219780
        k(   86) = (  -0.0625000   0.0416667  -0.0625000), wk =   0.0219780
        k(   87) = (  -0.0500000   0.0333333  -0.0500000), wk =   0.0219780
        k(   88) = (  -0.0375000   0.0250000  -0.0375000), wk =   0.0219780
        k(   89) = (  -0.0250000   0.0166667  -0.0250000), wk =   0.0219780
        k(   90) = (  -0.0125000   0.0083333  -0.0125000), wk =   0.0219780
        k(   91) = (   0.0000000   0.0000000   0.0000000), wk =   0.0219780

     Dense  grid:    87027 G-vectors     FFT dimensions: (  64,  64,  64)

     Smooth grid:    16625 G-vectors     FFT dimensions: (  36,  36,  36)

     Dynamical RAM for                 wfc:       0.25 MB

     Dynamical RAM for     wfc (w. buffer):       0.25 MB

     Dynamical RAM for           str. fact:       1.33 MB

     Dynamical RAM for           local pot:       0.00 MB

     Dynamical RAM for          nlocal pot:       1.15 MB

     Dynamical RAM for                qrad:       3.50 MB

     Dynamical RAM for          rho,v,vnew:       9.98 MB

     Dynamical RAM for           G-vectors:       5.11 MB

     Dynamical RAM for          h,s,v(r/c):       0.05 MB

     Dynamical RAM for          <psi|beta>:       0.00 MB

     Dynamical RAM for                 psi:       1.02 MB

     Dynamical RAM for                hpsi:       1.02 MB

     Dynamical RAM for                spsi:       1.02 MB

     Dynamical RAM for      wfcinit/wfcrot:       0.51 MB

     Dynamical RAM for           addusdens:     249.65 MB

     Estimated static dynamical RAM per process >      33.97 MB

     Estimated max dynamical RAM per process >     283.62 MB

     The potential is recalculated from file :
     ./outdir/\si.save\charge-density

     Starting wfcs are    8 randomized atomic wfcs

     Band Structure Calculation
     Davidson diagonalization with overlap

     Computing kpt #:     1
     total cpu time spent up to now is        8.3 secs

     Computing kpt #:     2
     total cpu time spent up to now is        8.4 secs

     Computing kpt #:     3
     total cpu time spent up to now is        8.5 secs

     Computing kpt #:     4
     total cpu time spent up to now is        8.6 secs

     Computing kpt #:     5
     total cpu time spent up to now is        8.7 secs

     Computing kpt #:     6
     total cpu time spent up to now is        8.8 secs

     Computing kpt #:     7
     total cpu time spent up to now is        8.9 secs

     Computing kpt #:     8
     total cpu time spent up to now is        9.0 secs

     Computing kpt #:     9
     total cpu time spent up to now is        9.1 secs

     Computing kpt #:    10
     total cpu time spent up to now is        9.3 secs

     Computing kpt #:    11
     total cpu time spent up to now is        9.4 secs

     Computing kpt #:    12
     total cpu time spent up to now is        9.5 secs

     Computing kpt #:    13
     total cpu time spent up to now is        9.5 secs

     Computing kpt #:    14
     total cpu time spent up to now is        9.6 secs

     Computing kpt #:    15
     total cpu time spent up to now is        9.7 secs

     Computing kpt #:    16
     total cpu time spent up to now is        9.8 secs

     Computing kpt #:    17
     total cpu time spent up to now is        9.9 secs

     Computing kpt #:    18
     total cpu time spent up to now is        9.9 secs

     Computing kpt #:    19
     total cpu time spent up to now is       10.0 secs

     Computing kpt #:    20
     total cpu time spent up to now is       10.1 secs

     Computing kpt #:    21
     total cpu time spent up to now is       10.2 secs

     Computing kpt #:    22
     total cpu time spent up to now is       10.2 secs

     Computing kpt #:    23
     total cpu time spent up to now is       10.3 secs

     Computing kpt #:    24
     total cpu time spent up to now is       10.4 secs

     Computing kpt #:    25
     total cpu time spent up to now is       10.4 secs

     Computing kpt #:    26
     total cpu time spent up to now is       10.5 secs

     Computing kpt #:    27
     total cpu time spent up to now is       10.6 secs

     Computing kpt #:    28
     total cpu time spent up to now is       10.7 secs

     Computing kpt #:    29
     total cpu time spent up to now is       10.8 secs

     Computing kpt #:    30
     total cpu time spent up to now is       10.9 secs

     Computing kpt #:    31
     total cpu time spent up to now is       11.0 secs

     Computing kpt #:    32
     total cpu time spent up to now is       11.1 secs

     Computing kpt #:    33
     total cpu time spent up to now is       11.1 secs

     Computing kpt #:    34
     total cpu time spent up to now is       11.2 secs

     Computing kpt #:    35
     total cpu time spent up to now is       11.3 secs

     Computing kpt #:    36
     total cpu time spent up to now is       11.4 secs

     Computing kpt #:    37
     total cpu time spent up to now is       11.5 secs

     Computing kpt #:    38
     total cpu time spent up to now is       11.5 secs

     Computing kpt #:    39
     total cpu time spent up to now is       11.6 secs

     Computing kpt #:    40
     total cpu time spent up to now is       11.7 secs

     Computing kpt #:    41
     total cpu time spent up to now is       11.8 secs

     Computing kpt #:    42
     total cpu time spent up to now is       11.9 secs

     Computing kpt #:    43
     total cpu time spent up to now is       11.9 secs

     Computing kpt #:    44
     total cpu time spent up to now is       12.0 secs

     Computing kpt #:    45
     total cpu time spent up to now is       12.1 secs

     Computing kpt #:    46
     total cpu time spent up to now is       12.2 secs

     Computing kpt #:    47
     total cpu time spent up to now is       12.3 secs

     Computing kpt #:    48
     total cpu time spent up to now is       12.5 secs

     Computing kpt #:    49
     total cpu time spent up to now is       12.7 secs

     Computing kpt #:    50
     total cpu time spent up to now is       12.9 secs

     Computing kpt #:    51
     total cpu time spent up to now is       13.0 secs

     Computing kpt #:    52
     total cpu time spent up to now is       13.2 secs

     Computing kpt #:    53
     total cpu time spent up to now is       13.4 secs

     Computing kpt #:    54
     total cpu time spent up to now is       13.6 secs

     Computing kpt #:    55
     total cpu time spent up to now is       13.7 secs

     Computing kpt #:    56
     total cpu time spent up to now is       13.9 secs

     Computing kpt #:    57
     total cpu time spent up to now is       14.1 secs

     Computing kpt #:    58
     total cpu time spent up to now is       14.3 secs

     Computing kpt #:    59
     total cpu time spent up to now is       14.5 secs

     Computing kpt #:    60
     total cpu time spent up to now is       14.7 secs

     Computing kpt #:    61
     total cpu time spent up to now is       14.9 secs

     Computing kpt #:    62
     total cpu time spent up to now is       15.1 secs

     Computing kpt #:    63
     total cpu time spent up to now is       15.3 secs

     Computing kpt #:    64
     total cpu time spent up to now is       15.5 secs

     Computing kpt #:    65
     total cpu time spent up to now is       15.6 secs

     Computing kpt #:    66
     total cpu time spent up to now is       15.8 secs

     Computing kpt #:    67
     total cpu time spent up to now is       15.9 secs

     Computing kpt #:    68
     total cpu time spent up to now is       16.1 secs

     Computing kpt #:    69
     total cpu time spent up to now is       16.3 secs

     Computing kpt #:    70
     total cpu time spent up to now is       16.4 secs

     Computing kpt #:    71
     total cpu time spent up to now is       16.5 secs

     Computing kpt #:    72
     total cpu time spent up to now is       16.7 secs

     Computing kpt #:    73
     total cpu time spent up to now is       16.8 secs

     Computing kpt #:    74
     total cpu time spent up to now is       17.0 secs

     Computing kpt #:    75
     total cpu time spent up to now is       17.1 secs

     Computing kpt #:    76
     total cpu time spent up to now is       17.3 secs

     Computing kpt #:    77
     total cpu time spent up to now is       17.4 secs

     Computing kpt #:    78
     total cpu time spent up to now is       17.6 secs

     Computing kpt #:    79
     total cpu time spent up to now is       17.8 secs

     Computing kpt #:    80
     total cpu time spent up to now is       17.9 secs

     Computing kpt #:    81
     total cpu time spent up to now is       18.1 secs

     Computing kpt #:    82
     total cpu time spent up to now is       18.2 secs

     Computing kpt #:    83
     total cpu time spent up to now is       18.4 secs

     Computing kpt #:    84
     total cpu time spent up to now is       18.5 secs

     Computing kpt #:    85
     total cpu time spent up to now is       18.7 secs

     Computing kpt #:    86
     total cpu time spent up to now is       18.8 secs

     Computing kpt #:    87
     total cpu time spent up to now is       19.0 secs

     Computing kpt #:    88
     total cpu time spent up to now is       19.1 secs

     Computing kpt #:    89
     total cpu time spent up to now is       19.3 secs

     Computing kpt #:    90
     total cpu time spent up to now is       19.4 secs

     Computing kpt #:    91
     total cpu time spent up to now is       19.5 secs

     ethr =  1.25E-10,  avg # of iterations = 17.9

     total cpu time spent up to now is       19.5 secs

     End of band structure calculation

          k = 0.5000 0.5000 0.5000 (  2060 PWs)   bands (ev):

    -3.3302  -0.6761   5.1577   5.1577   7.9657   9.7064   9.7064  14.1279

          k = 0.4750 0.4750 0.4750 (  2078 PWs)   bands (ev):

    -3.3666  -0.6240   5.1622   5.1622   7.9708   9.7118   9.7118  14.1362

          k = 0.4500 0.4500 0.4500 (  2084 PWs)   bands (ev):

    -3.4680  -0.4758   5.1757   5.1757   7.9863   9.7278   9.7278  14.1607

          k = 0.4250 0.4250 0.4250 (  2078 PWs)   bands (ev):

    -3.6161  -0.2496   5.1983   5.1983   8.0119   9.7531   9.7531  14.1991

          k = 0.4000 0.4000 0.4000 (  2078 PWs)   bands (ev):

    -3.7924   0.0356   5.2299   5.2299   8.0476   9.7859   9.7859  14.2470

          k = 0.3750 0.3750 0.3750 (  2072 PWs)   bands (ev):

    -3.9825   0.3653   5.2704   5.2704   8.0933   9.8231   9.8231  14.2948

          k = 0.3500 0.3500 0.3500 (  2093 PWs)   bands (ev):

    -4.1766   0.7292   5.3198   5.3198   8.1486   9.8605   9.8605  14.3210

          k = 0.3250 0.3250 0.3250 (  2090 PWs)   bands (ev):

    -4.3681   1.1203   5.3779   5.3779   8.2131   9.8929   9.8929  14.2799

          k = 0.3000 0.3000 0.3000 (  2081 PWs)   bands (ev):

    -4.5527   1.5336   5.4443   5.4443   8.2862   9.9136   9.9136  13.9932

          k = 0.2750 0.2750 0.2750 (  2072 PWs)   bands (ev):

    -4.7277   1.9655   5.5188   5.5188   8.3673   9.9153   9.9153  13.7580

          k = 0.2500 0.2500 0.2500 (  2085 PWs)   bands (ev):

    -4.8910   2.4127   5.6007   5.6007   8.4551   9.8911   9.8911  13.4221

          k = 0.2250 0.2250 0.2250 (  2085 PWs)   bands (ev):

    -5.0412   2.8726   5.6892   5.6892   8.5482   9.8366   9.8366  13.0008

          k = 0.2000 0.2000 0.2000 (  2079 PWs)   bands (ev):

    -5.1773   3.3420   5.7831   5.7831   8.6446   9.7513   9.7513  12.5614

          k = 0.1750 0.1750 0.1750 (  2088 PWs)   bands (ev):

    -5.2987   3.8174   5.8808   5.8808   8.7413   9.6396   9.6396  12.1141

          k = 0.1500 0.1500 0.1500 (  2082 PWs)   bands (ev):

    -5.4047   4.2943   5.9800   5.9800   8.8342   9.5099   9.5099  11.6661

          k = 0.1250 0.1250 0.1250 (  2088 PWs)   bands (ev):

    -5.4950   4.7661   6.0776   6.0776   8.9176   9.3724   9.3724  11.2265

          k = 0.1000 0.1000 0.1000 (  2079 PWs)   bands (ev):

    -5.5692   5.2229   6.1695   6.1695   8.9829   9.2383   9.2383  10.8093

          k = 0.0750 0.0750 0.0750 (  2091 PWs)   bands (ev):

    -5.6272   5.6484   6.2507   6.2507   9.0177   9.1186   9.1186  10.4380

          k = 0.0500 0.0500 0.0500 (  2085 PWs)   bands (ev):

    -5.6687   6.0143   6.3152   6.3152   9.0099   9.0235   9.0235  10.1483

          k = 0.0250 0.0250 0.0250 (  2085 PWs)   bands (ev):

    -5.6936   6.2747   6.3571   6.3571   8.9622   8.9622   8.9675   9.9733

          k = 0.0000 0.0000 0.0000 (  2085 PWs)   bands (ev):

    -5.7019   6.3716   6.3716   6.3716   8.9410   8.9410   8.9410   9.9176

          k = 0.0333 0.0000 0.0000 (  2085 PWs)   bands (ev):

    -5.6970   6.3390   6.3499   6.3499   8.9287   8.9687   8.9687   9.9495

          k = 0.0667 0.0000 0.0000 (  2085 PWs)   bands (ev):

    -5.6822   6.2447   6.2877   6.2877   8.8925   9.0491   9.0491  10.0411

          k = 0.1000 0.0000 0.0000 (  2089 PWs)   bands (ev):

    -5.6576   6.0978   6.1919   6.1919   8.8342   9.1753   9.1753  10.1813

          k = 0.1333 0.0000 0.0000 (  2089 PWs)   bands (ev):

    -5.6231   5.9092   6.0709   6.0709   8.7567   9.3386   9.3386  10.3544

          k = 0.1667 0.0000 0.0000 (  2081 PWs)   bands (ev):

    -5.5788   5.6892   5.9326   5.9326   8.6633   9.5311   9.5311  10.5423

          k = 0.2000 0.0000 0.0000 (  2073 PWs)   bands (ev):

    -5.5247   5.4461   5.7834   5.7834   8.5573   9.7464   9.7464  10.7217

          k = 0.2333 0.0000 0.0000 (  2077 PWs)   bands (ev):

    -5.4609   5.1862   5.6281   5.6281   8.4423   9.9794   9.9794  10.8614

          k = 0.2667 0.0000 0.0000 (  2081 PWs)   bands (ev):

    -5.3873   4.9141   5.4703   5.4703   8.3211  10.2264  10.2264  10.9228

          k = 0.3000 0.0000 0.0000 (  2085 PWs)   bands (ev):

    -5.3041   4.6331   5.3127   5.3127   8.1966  10.4847  10.4847  10.8788

          k = 0.3333 0.0000 0.0000 (  2061 PWs)   bands (ev):

    -5.2112   4.3455   5.1571   5.1571   8.0711  10.7374  10.7522  10.7522

          k = 0.3667 0.0000 0.0000 (  2073 PWs)   bands (ev):

    -5.1088   4.0530   5.0051   5.0051   7.9465  10.5304  11.0273  11.0273

          k = 0.4000 0.0000 0.0000 (  2073 PWs)   bands (ev):

    -4.9970   3.7568   4.8576   4.8576   7.8246  10.2877  11.3087  11.3087

          k = 0.4333 0.0000 0.0000 (  2069 PWs)   bands (ev):

    -4.8757   3.4581   4.7156   4.7156   7.7067  10.0289  11.5955  11.5955

          k = 0.4667 0.0000 0.0000 (  2069 PWs)   bands (ev):

    -4.7450   3.1574   4.5796   4.5796   7.5942   9.7655  11.8870  11.8870

          k = 0.5000 0.0000 0.0000 (  2085 PWs)   bands (ev):

    -4.6052   2.8555   4.4503   4.4503   7.4879   9.5045  12.1825  12.1825

          k = 0.5333 0.0000 0.0000 (  2061 PWs)   bands (ev):

    -4.4562   2.5528   4.3281   4.3281   7.3887   9.2502  12.4815  12.4815

          k = 0.5667 0.0000 0.0000 (  2061 PWs)   bands (ev):

    -4.2982   2.2500   4.2132   4.2132   7.2975   9.0054  12.7838  12.7838

          k = 0.6000 0.0000 0.0000 (  2072 PWs)   bands (ev):

    -4.1313   1.9473   4.1061   4.1061   7.2148   8.7719  13.0890  13.0890

          k = 0.6333 0.0000 0.0000 (  2080 PWs)   bands (ev):

    -3.9557   1.6454   4.0068   4.0068   7.1412   8.5511  13.3969  13.3969

          k = 0.6667 0.0000 0.0000 (  2080 PWs)   bands (ev):

    -3.7715   1.3447   3.9156   3.9156   7.0773   8.3436  13.7073  13.7073

          k = 0.7000 0.0000 0.0000 (  2080 PWs)   bands (ev):

    -3.5788   1.0455   3.8328   3.8328   7.0234   8.1501  14.0201  14.0201

          k = 0.7333 0.0000 0.0000 (  2084 PWs)   bands (ev):

    -3.3779   0.7485   3.7583   3.7583   6.9800   7.9708  14.3351  14.3351

          k = 0.7667 0.0000 0.0000 (  2088 PWs)   bands (ev):

    -3.1689   0.4539   3.6923   3.6923   6.9475   7.8060  14.6520  14.6520

          k = 0.8000 0.0000 0.0000 (  2092 PWs)   bands (ev):

    -2.9520   0.1624   3.6350   3.6350   6.9263   7.6557  14.9706  14.9706

          k = 0.8333 0.0000 0.0000 (  2100 PWs)   bands (ev):

    -2.7275  -0.1258   3.5864   3.5864   6.9166   7.5198  15.2899  15.2899

          k = 0.8667 0.0000 0.0000 (  2088 PWs)   bands (ev):

    -2.4956  -0.4100   3.5465   3.5465   6.9187   7.3983  15.6086  15.6086

          k = 0.9000 0.0000 0.0000 (  2080 PWs)   bands (ev):

    -2.2566  -0.6899   3.5154   3.5154   6.9331   7.2910  15.9234  15.9234

          k = 0.9333 0.0000 0.0000 (  2080 PWs)   bands (ev):

    -2.0107  -0.9651   3.4932   3.4932   6.9600   7.1977  16.2257  16.2257

          k = 0.9667 0.0000 0.0000 (  2084 PWs)   bands (ev):

    -1.7583  -1.2351   3.4799   3.4799   6.9996   7.1182  16.4880  16.4880

          k = 1.0000 0.0000 0.0000 (  2100 PWs)   bands (ev):

    -1.4997  -1.4997   3.4754   3.4754   7.0522   7.0522  16.6130  16.6130

          k = 1.0000 0.0250 0.0250 (  2088 PWs)   bands (ev):

    -1.5018  -1.4937   3.4370   3.4799   7.0574   7.1088  16.5482  16.5803

          k = 1.0000 0.0500 0.0500 (  2080 PWs)   bands (ev):

    -1.5086  -1.4757   3.3294   3.4933   7.0728   7.2711  16.3728  16.4863

          k = 1.0000 0.0750 0.0750 (  2076 PWs)   bands (ev):

    -1.5208  -1.4459   3.1709   3.5155   7.0985   7.5215  16.1247  16.3414

          k = 1.0000 0.1000 0.1000 (  2084 PWs)   bands (ev):

    -1.5397  -1.4041   2.9824   3.5465   7.1344   7.8404  15.8350  16.1579

          k = 1.0000 0.1250 0.1250 (  2089 PWs)   bands (ev):

    -1.5672  -1.3503   2.7820   3.5862   7.1804   8.2112  15.5234  15.9469

          k = 1.0000 0.1500 0.1500 (  2091 PWs)   bands (ev):

    -1.6055  -1.2847   2.5839   3.6345   7.2363   8.6218  15.2012  15.7174

          k = 1.0000 0.1750 0.1750 (  2097 PWs)   bands (ev):

    -1.6570  -1.2072   2.3989   3.6911   7.3019   9.0633  14.8752  15.4651

          k = 1.0000 0.2000 0.2000 (  2097 PWs)   bands (ev):

    -1.7241  -1.1179   2.2351   3.7559   7.3771   9.5294  14.5498  15.1229

          k = 1.0000 0.2250 0.2250 (  2089 PWs)   bands (ev):

    -1.8089  -1.0167   2.0984   3.8287   7.4616  10.0151  14.2275  14.7884

          k = 1.0000 0.2500 0.2500 (  2097 PWs)   bands (ev):

    -1.9124  -0.9038   1.9929   3.9091   7.5551  10.5161  13.9104  14.4639

          k = 0.9667 0.2417 0.2417 (  2094 PWs)   bands (ev):

    -1.9166  -0.9052   2.0388   3.8855   7.5289  10.3534  13.9325  14.3449

          k = 0.9333 0.2333 0.2333 (  2101 PWs)   bands (ev):

    -2.0044  -0.8275   2.1138   3.8710   7.5153  10.2041  13.8416  14.1289

          k = 0.9000 0.2250 0.2250 (  2105 PWs)   bands (ev):

    -2.1531  -0.6889   2.2135   3.8657   7.5142  10.0690  13.7049  13.9054

          k = 0.8667 0.2167 0.2167 (  2099 PWs)   bands (ev):

    -2.3364  -0.5122   2.3339   3.8697   7.5252   9.9490  13.5524  13.6808

          k = 0.8333 0.2083 0.2083 (  2101 PWs)   bands (ev):

    -2.5373  -0.3115   2.4718   3.8831   7.5476   9.8454  13.3952  13.4568

          k = 0.8000 0.2000 0.2000 (  2103 PWs)   bands (ev):

    -2.7464  -0.0941   2.6244   3.9060   7.5806   9.7593  13.2338  13.2373

          k = 0.7667 0.1917 0.1917 (  2094 PWs)   bands (ev):

    -2.9581   0.1362   2.7892   3.9384   7.6229   9.6924  13.0124  13.0803

          k = 0.7333 0.1833 0.1833 (  2092 PWs)   bands (ev):

    -3.1687   0.3771   2.9642   3.9803   7.6731   9.6464  12.7925  12.9244

          k = 0.7000 0.1750 0.1750 (  2090 PWs)   bands (ev):

    -3.3760   0.6276   3.1476   4.0317   7.7293   9.6233  12.5744  12.7688

          k = 0.6667 0.1667 0.1667 (  2082 PWs)   bands (ev):

    -3.5782   0.8866   3.3376   4.0926   7.7894   9.6251  12.3584  12.6124

          k = 0.6333 0.1583 0.1583 (  2083 PWs)   bands (ev):

    -3.7742   1.1538   3.5326   4.1628   7.8513   9.6538  12.1447  12.4538

          k = 0.6000 0.1500 0.1500 (  2083 PWs)   bands (ev):

    -3.9630   1.4285   3.7313   4.2423   7.9131   9.7104  11.9340  12.2912

          k = 0.5667 0.1417 0.1417 (  2084 PWs)   bands (ev):

    -4.1439   1.7105   3.9321   4.3309   7.9737   9.7950  11.7271  12.1226

          k = 0.5333 0.1333 0.1333 (  2083 PWs)   bands (ev):

    -4.3163   1.9994   4.1338   4.4284   8.0326   9.9059  11.5255  11.9462

          k = 0.5000 0.1250 0.1250 (  2083 PWs)   bands (ev):

    -4.4798   2.2949   4.3351   4.5346   8.0901  10.0386  11.3321  11.7603

          k = 0.4667 0.1167 0.1167 (  2069 PWs)   bands (ev):

    -4.6340   2.5965   4.5349   4.6491   8.1472  10.1833  11.1538  11.5638

          k = 0.4333 0.1083 0.1083 (  2072 PWs)   bands (ev):

    -4.7785   2.9038   4.7318   4.7717   8.2049  10.3166  11.0095  11.3565

          k = 0.4000 0.1000 0.1000 (  2076 PWs)   bands (ev):

    -4.9131   3.2162   4.9017   4.9249   8.2645  10.3809  10.9497  11.1388

          k = 0.3667 0.0917 0.0917 (  2070 PWs)   bands (ev):

    -5.0377   3.5329   5.0386   5.1128   8.3268  10.3241  10.9123  11.0154

          k = 0.3333 0.0833 0.0833 (  2068 PWs)   bands (ev):

    -5.1519   3.8529   5.1815   5.2943   8.3923  10.1930  10.6792  11.1404

          k = 0.3000 0.0750 0.0750 (  2072 PWs)   bands (ev):

    -5.2556   4.1750   5.3294   5.4682   8.4611  10.0382  10.4424  11.2402

          k = 0.2667 0.0667 0.0667 (  2076 PWs)   bands (ev):

    -5.3488   4.4974   5.4807   5.6328   8.5325   9.8784  10.2054  11.2497

          k = 0.2333 0.0583 0.0583 (  2079 PWs)   bands (ev):

    -5.4312   4.8176   5.6336   5.7866   8.6053   9.7205   9.9721  11.1386

          k = 0.2000 0.0500 0.0500 (  2071 PWs)   bands (ev):

    -5.5028   5.1321   5.7854   5.9276   8.6777   9.5676   9.7470  10.9356

          k = 0.1667 0.0417 0.0417 (  2081 PWs)   bands (ev):

    -5.5635   5.4357   5.9324   6.0538   8.7471   9.4214   9.5354  10.6917

          k = 0.1333 0.0333 0.0333 (  2089 PWs)   bands (ev):

    -5.6133   5.7206   6.0697   6.1625   8.8105   9.2833   9.3436  10.4470

          k = 0.1000 0.0250 0.0250 (  2089 PWs)   bands (ev):

    -5.6520   5.9753   6.1906   6.2512   8.8645   9.1562   9.1792  10.2295

          k = 0.0667 0.0167 0.0167 (  2087 PWs)   bands (ev):

    -5.6797   6.1831   6.2869   6.3171   8.9060   9.0470   9.0513  10.0603

          k = 0.0333 0.0083 0.0083 (  2085 PWs)   bands (ev):

    -5.6964   6.3222   6.3497   6.3578   8.9321   8.9693   8.9696   9.9538

          k = 0.0000 0.0000 0.0000 (  2085 PWs)   bands (ev):

    -5.7019   6.3716   6.3716   6.3716   8.9410   8.9410   8.9410   9.9176

     Writing output data file si.save\

     init_run     :      4.44s CPU      3.25s WALL (       1 calls)
     electrons    :     44.47s CPU     11.28s WALL (       1 calls)

     Called by init_run:
     wfcinit      :      0.00s CPU      0.00s WALL (       1 calls)
     wfcinit:atom :      0.00s CPU      0.02s WALL (      91 calls)
     wfcinit:wfcr :      3.00s CPU      0.69s WALL (      91 calls)
     potinit      :      0.58s CPU      0.14s WALL (       1 calls)
     hinit0       :      2.64s CPU      2.64s WALL (       1 calls)

     Called by electrons:
     c_bands      :     44.42s CPU     11.27s WALL (       1 calls)
     v_of_rho     :      0.45s CPU      0.10s WALL (       1 calls)
     v_h          :      0.00s CPU      0.00s WALL (       1 calls)
     v_xc         :      0.45s CPU      0.10s WALL (       1 calls)
     newd         :      1.11s CPU      0.29s WALL (       1 calls)

     Called by c_bands:
     init_us_2    :      0.28s CPU      0.07s WALL (      91 calls)
     cegterg      :     38.17s CPU      9.89s WALL (     107 calls)

     Called by sum_band:

     Called by *egterg:
     h_psi        :     33.06s CPU      8.29s WALL (    1829 calls)
     s_psi        :      0.91s CPU      0.23s WALL (    1829 calls)
     g_psi        :      0.67s CPU      0.13s WALL (    1631 calls)
     cdiaghg      :      1.48s CPU      0.48s WALL (    1722 calls)
     cegterg:over :      1.88s CPU      0.48s WALL (    1631 calls)
     cegterg:upda :      1.23s CPU      0.36s WALL (    1631 calls)
     cegterg:last :      0.84s CPU      0.19s WALL (     402 calls)

     Called by h_psi:
     h_psi:pot    :     32.47s CPU      8.10s WALL (    1829 calls)
     h_psi:calbec :      1.05s CPU      0.27s WALL (    1829 calls)
     vloc_psi     :     30.12s CPU      7.52s WALL (    1829 calls)
     add_vuspsi   :      1.25s CPU      0.30s WALL (    1829 calls)

     General routines
     calbec       :      1.05s CPU      0.27s WALL (    1829 calls)
     fft          :      0.06s CPU      0.02s WALL (      13 calls)
     ffts         :      0.00s CPU      0.00s WALL (       1 calls)
     fftw         :     19.33s CPU      4.87s WALL (   19746 calls)
     interpolate  :      0.00s CPU      0.00s WALL (       1 calls)
     davcio       :      0.00s CPU      0.02s WALL (     182 calls)

     Parallel routines

     PWSCF        :     54.44s CPU     20.03s WALL


   This run was terminated on:   0:58:55  25Jun2022            

=------------------------------------------------------------------------------=
   JOB DONE.
=------------------------------------------------------------------------------=
