
     Program PWSCF v.6.4.1 starts on 23Mar2022 at 16: 5: 0 

     This program is part of the open-source Quantum ESPRESSO suite
     for quantum simulation of materials; please cite
         "P. Giannozzi et al., J. Phys.:Condens. Matter 21 395502 (2009);
         "P. Giannozzi et al., J. Phys.:Condens. Matter 29 465901 (2017);
          URL http://www.quantum-espresso.org", 
     in publications or presentations arising from this work. More details at
     http://www.quantum-espresso.org/quote

     Parallel version (MPI & OpenMP), running on       8 processor cores
     Number of MPI processes:                 1
     Threads/MPI process:                     8

     MPI processes distributed on     1 nodes
     Waiting for input...
     Reading input from standard input

     Current dimensions of program PWSCF are:
     Max number of different atomic species (ntypx) = 10
     Max number of k-points (npk) =  40000
     Max angular momentum in pseudopotentials (lmaxx) =  3

     Atomic positions and unit cell read from directory:
     .\si.save\


     Subspace diagonalization in iterative solution of the eigenvalue problem:
     a serial algorithm will be used

     Message from routine setup:
     no reason to have ecutrho>4*ecutwfc

     G-vector sticks info
     --------------------
     sticks:   dense  smooth     PW     G-vecs:    dense   smooth      PW
     Sum        2587     859    271                87843    16889    2975



     bravais-lattice index     =            2
     lattice parameter (alat)  =      10.2625  a.u.
     unit-cell volume          =     270.2088 (a.u.)^3
     number of atoms/cell      =            2
     number of atomic types    =            1
     number of electrons       =         8.00
     number of Kohn-Sham states=            8
     kinetic-energy cutoff     =      60.0000  Ry
     charge density cutoff     =     720.0000  Ry
     Exchange-correlation      =  SLA  PZ   NOGX NOGC ( 1  1  0  0 0 0)

     celldm(1)=  10.262500  celldm(2)=   0.000000  celldm(3)=   0.000000
     celldm(4)=   0.000000  celldm(5)=   0.000000  celldm(6)=   0.000000

     crystal axes: (cart. coord. in units of alat)
               a(1) = (  -0.500000   0.000000   0.500000 )  
               a(2) = (   0.000000   0.500000   0.500000 )  
               a(3) = (  -0.500000   0.500000   0.000000 )  

     reciprocal axes: (cart. coord. in units 2 pi/alat)
               b(1) = ( -1.000000 -1.000000  1.000000 )  
               b(2) = (  1.000000  1.000000  1.000000 )  
               b(3) = ( -1.000000  1.000000 -1.000000 )  


     PseudoPot. # 1 for Si read from file:
     .\Si.pz-vbc.UPF
     MD5 check sum: 9ff1c57f5c63fba4f5f219b0273d6b9d
     Pseudo is Norm-conserving, Zval =  4.0
     Generated by new atomic code, or converted to UPF format
     Using radial grid of  431 points,  2 beta functions with: 
                l(1) =   0
                l(2) =   1

     atomic species   valence    mass     pseudopotential
        Si             4.00    28.08550     Si( 1.00)

     48 Sym. Ops., with inversion, found (24 have fractional translation)



   Cartesian axes

     site n.     atom                  positions (alat units)
         1           Si  tau(   1) = (   0.0000000   0.0000000   0.0000000  )
         2           Si  tau(   2) = (   0.2500000   0.2500000   0.2500000  )

     number of k points=   182 (tetrahedron method)

     Number of k-points >= 100: set verbosity='high' to print them.

     Dense  grid:    87843 G-vectors     FFT dimensions: (  64,  64,  64)

     Smooth grid:    16889 G-vectors     FFT dimensions: (  36,  36,  36)

     Estimated max dynamical RAM per process >      32.14 MB

     The potential is recalculated from file :
     .\si.save\charge-density

     Starting wfcs are    8 randomized atomic wfcs

     Band Structure Calculation
     Davidson diagonalization with overlap

     ethr =  1.25E-10,  avg # of iterations = 18.4

     total cpu time spent up to now is       15.4 secs

     End of band structure calculation

     Number of k-points >= 100: set verbosity='high' to print the bands.

     the Fermi energy is     6.3024 ev

     Writing output data file si.save\

     init_run     :      0.41s CPU      0.25s WALL (       1 calls)
     electrons    :     58.03s CPU     14.67s WALL (       1 calls)

     Called by init_run:
     wfcinit      :      0.00s CPU      0.00s WALL (       1 calls)
     potinit      :      0.22s CPU      0.06s WALL (       1 calls)
     hinit0       :      0.12s CPU      0.13s WALL (       1 calls)

     Called by electrons:
     c_bands      :     57.88s CPU     14.62s WALL (       1 calls)
     v_of_rho     :      0.06s CPU      0.02s WALL (       1 calls)

     Called by c_bands:
     init_us_2    :      0.38s CPU      0.09s WALL (     182 calls)
     cegterg      :     52.00s CPU     13.05s WALL (     218 calls)

     Called by sum_band:

     Called by *egterg:
     h_psi        :     44.91s CPU     11.21s WALL (    3756 calls)
     g_psi        :      0.36s CPU      0.18s WALL (    3356 calls)
     cdiaghg      :      2.56s CPU      0.66s WALL (    3538 calls)

     Called by h_psi:
     h_psi:pot    :     43.88s CPU     10.98s WALL (    3756 calls)
     h_psi:calbec :      0.94s CPU      0.18s WALL (    3756 calls)
     vloc_psi     :     42.45s CPU     10.66s WALL (    3756 calls)
     add_vuspsi   :      0.48s CPU      0.12s WALL (    3756 calls)

     General routines
     calbec       :      0.94s CPU      0.18s WALL (    3756 calls)
     fft          :      0.00s CPU      0.01s WALL (       4 calls)
     ffts         :      0.00s CPU      0.00s WALL (       1 calls)
     fftw         :     27.27s CPU      6.95s WALL (   41348 calls)
     interpolate  :      0.00s CPU      0.00s WALL (       1 calls)
     davcio       :      0.11s CPU      0.04s WALL (     364 calls)

     Parallel routines

     PWSCF        :   1m 0.06s CPU     16.09s WALL


   This run was terminated on:  16: 5:16  23Mar2022            

=------------------------------------------------------------------------------=
   JOB DONE.
=------------------------------------------------------------------------------=
