
     Program PWSCF v.6.4.1 starts on 26Jun2022 at  0:40:12 

     This program is part of the open-source Quantum ESPRESSO suite
     for quantum simulation of materials; please cite
         "P. Giannozzi et al., J. Phys.:Condens. Matter 21 395502 (2009);
         "P. Giannozzi et al., J. Phys.:Condens. Matter 29 465901 (2017);
          URL http://www.quantum-espresso.org", 
     in publications or presentations arising from this work. More details at
     http://www.quantum-espresso.org/quote

     Parallel version (MPI & OpenMP), running on       8 processor cores
     Number of MPI processes:                 1
     Threads/MPI process:                     8

     MPI processes distributed on     1 nodes
     Waiting for input...
     Reading input from standard input

     Current dimensions of program PWSCF are:
     Max number of different atomic species (ntypx) = 10
     Max number of k-points (npk) =  40000
     Max angular momentum in pseudopotentials (lmaxx) =  3

     Subspace diagonalization in iterative solution of the eigenvalue problem:
     a serial algorithm will be used


     G-vector sticks info
     --------------------
     sticks:   dense  smooth     PW     G-vecs:    dense   smooth      PW
     Sum        2587     859    253                87027    16625    2741



     bravais-lattice index     =            2
     lattice parameter (alat)  =      10.2076  a.u.
     unit-cell volume          =     265.8955 (a.u.)^3
     number of atoms/cell      =            2
     number of atomic types    =            1
     number of electrons       =         8.00
     number of Kohn-Sham states=            8
     kinetic-energy cutoff     =      60.0000  Ry
     charge density cutoff     =     720.0000  Ry
     convergence threshold     =      1.0E-08
     mixing beta               =       0.6000
     number of iterations used =            8  plain     mixing
     Exchange-correlation      = PBE ( 1  4  3  4 0 0)

     celldm(1)=  10.207600  celldm(2)=   0.000000  celldm(3)=   0.000000
     celldm(4)=   0.000000  celldm(5)=   0.000000  celldm(6)=   0.000000

     crystal axes: (cart. coord. in units of alat)
               a(1) = (  -0.500000   0.000000   0.500000 )  
               a(2) = (   0.000000   0.500000   0.500000 )  
               a(3) = (  -0.500000   0.500000   0.000000 )  

     reciprocal axes: (cart. coord. in units 2 pi/alat)
               b(1) = ( -1.000000 -1.000000  1.000000 )  
               b(2) = (  1.000000  1.000000  1.000000 )  
               b(3) = ( -1.000000  1.000000 -1.000000 )  


     PseudoPot. # 1 for Si read from file:
     ./Pseudopotential/\Si.pbe-n-rrkjus_psl.1.0.0.UPF
     MD5 check sum: fa25574f73a70a4139f2adfbefec430c
     Pseudo is Ultrasoft + core correction, Zval =  4.0
     Generated using "atomic" code by A. Dal Corso v.6.3
     Using radial grid of 1141 points,  6 beta functions with: 
                l(1) =   0
                l(2) =   0
                l(3) =   1
                l(4) =   1
                l(5) =   2
                l(6) =   2
     Q(r) pseudized with 0 coefficients 


     atomic species   valence    mass     pseudopotential
        Si             4.00    28.08600     Si( 1.00)

     48 Sym. Ops., with inversion, found (24 have fractional translation)



   Cartesian axes

     site n.     atom                  positions (alat units)
         1           Si  tau(   1) = (   0.0000000   0.0000000   0.0000000  )
         2           Si  tau(   2) = (   0.2500000   0.2500000   0.2500000  )

     number of k points=    72  gaussian smearing, width (Ry)=  0.0050
                       cart. coord. in units 2pi/alat
        k(    1) = (   0.0000000   0.0000000   0.0000000), wk =   0.0011574
        k(    2) = (  -0.0833333   0.0833333  -0.0833333), wk =   0.0092593
        k(    3) = (  -0.1666667   0.1666667  -0.1666667), wk =   0.0092593
        k(    4) = (  -0.2500000   0.2500000  -0.2500000), wk =   0.0092593
        k(    5) = (  -0.3333333   0.3333333  -0.3333333), wk =   0.0092593
        k(    6) = (  -0.4166667   0.4166667  -0.4166667), wk =   0.0092593
        k(    7) = (   0.5000000  -0.5000000   0.5000000), wk =   0.0046296
        k(    8) = (   0.0000000   0.1666667   0.0000000), wk =   0.0069444
        k(    9) = (  -0.0833333   0.2500000  -0.0833333), wk =   0.0277778
        k(   10) = (  -0.1666667   0.3333333  -0.1666667), wk =   0.0277778
        k(   11) = (  -0.2500000   0.4166667  -0.2500000), wk =   0.0277778
        k(   12) = (  -0.3333333   0.5000000  -0.3333333), wk =   0.0277778
        k(   13) = (   0.5833333  -0.4166667   0.5833333), wk =   0.0277778
        k(   14) = (   0.5000000  -0.3333333   0.5000000), wk =   0.0277778
        k(   15) = (   0.4166667  -0.2500000   0.4166667), wk =   0.0277778
        k(   16) = (   0.3333333  -0.1666667   0.3333333), wk =   0.0277778
        k(   17) = (   0.2500000  -0.0833333   0.2500000), wk =   0.0277778
        k(   18) = (   0.1666667  -0.0000000   0.1666667), wk =   0.0138889
        k(   19) = (   0.0000000   0.3333333   0.0000000), wk =   0.0069444
        k(   20) = (  -0.0833333   0.4166667  -0.0833333), wk =   0.0277778
        k(   21) = (  -0.1666667   0.5000000  -0.1666667), wk =   0.0277778
        k(   22) = (  -0.2500000   0.5833333  -0.2500000), wk =   0.0277778
        k(   23) = (   0.6666667  -0.3333333   0.6666667), wk =   0.0277778
        k(   24) = (   0.5833333  -0.2500000   0.5833333), wk =   0.0277778
        k(   25) = (   0.5000000  -0.1666667   0.5000000), wk =   0.0277778
        k(   26) = (   0.4166667  -0.0833333   0.4166667), wk =   0.0277778
        k(   27) = (   0.3333333   0.0000000   0.3333333), wk =   0.0138889
        k(   28) = (   0.0000000   0.5000000   0.0000000), wk =   0.0069444
        k(   29) = (  -0.0833333   0.5833333  -0.0833333), wk =   0.0277778
        k(   30) = (  -0.1666667   0.6666667  -0.1666667), wk =   0.0277778
        k(   31) = (   0.7500000  -0.2500000   0.7500000), wk =   0.0277778
        k(   32) = (   0.6666667  -0.1666667   0.6666667), wk =   0.0277778
        k(   33) = (   0.5833333  -0.0833333   0.5833333), wk =   0.0277778
        k(   34) = (   0.5000000   0.0000000   0.5000000), wk =   0.0138889
        k(   35) = (   0.0000000   0.6666667   0.0000000), wk =   0.0069444
        k(   36) = (  -0.0833333   0.7500000  -0.0833333), wk =   0.0277778
        k(   37) = (   0.8333333  -0.1666667   0.8333333), wk =   0.0277778
        k(   38) = (   0.7500000  -0.0833333   0.7500000), wk =   0.0277778
        k(   39) = (   0.6666667  -0.0000000   0.6666667), wk =   0.0138889
        k(   40) = (   0.0000000   0.8333333   0.0000000), wk =   0.0069444
        k(   41) = (   0.9166667  -0.0833333   0.9166667), wk =   0.0277778
        k(   42) = (   0.8333333   0.0000000   0.8333333), wk =   0.0138889
        k(   43) = (   0.0000000  -1.0000000   0.0000000), wk =   0.0034722
        k(   44) = (  -0.1666667   0.3333333   0.0000000), wk =   0.0277778
        k(   45) = (  -0.2500000   0.4166667  -0.0833333), wk =   0.0555556
        k(   46) = (  -0.3333333   0.5000000  -0.1666667), wk =   0.0555556
        k(   47) = (   0.5833333  -0.4166667   0.7500000), wk =   0.0555556
        k(   48) = (   0.5000000  -0.3333333   0.6666667), wk =   0.0277778
        k(   49) = (  -0.1666667   0.5000000   0.0000000), wk =   0.0277778
        k(   50) = (  -0.2500000   0.5833333  -0.0833333), wk =   0.0555556
        k(   51) = (   0.6666667  -0.3333333   0.8333333), wk =   0.0555556
        k(   52) = (   0.5833333  -0.2500000   0.7500000), wk =   0.0555556
        k(   53) = (   0.5000000  -0.1666667   0.6666667), wk =   0.0555556
        k(   54) = (   0.4166667  -0.0833333   0.5833333), wk =   0.0555556
        k(   55) = (   0.3333333   0.0000000   0.5000000), wk =   0.0277778
        k(   56) = (  -0.1666667   0.6666667  -0.0000000), wk =   0.0277778
        k(   57) = (   0.7500000  -0.2500000   0.9166667), wk =   0.0555556
        k(   58) = (   0.6666667  -0.1666667   0.8333333), wk =   0.0555556
        k(   59) = (   0.5833333  -0.0833333   0.7500000), wk =   0.0555556
        k(   60) = (   0.5000000   0.0000000   0.6666667), wk =   0.0277778
        k(   61) = (   0.8333333  -0.1666667   1.0000000), wk =   0.0277778
        k(   62) = (   0.7500000  -0.0833333   0.9166667), wk =   0.0555556
        k(   63) = (   0.6666667   0.0000000   0.8333333), wk =   0.0277778
        k(   64) = (  -0.1666667  -1.0000000  -0.0000000), wk =   0.0138889
        k(   65) = (   0.6666667  -0.3333333   1.0000000), wk =   0.0277778
        k(   66) = (   0.5833333  -0.2500000   0.9166667), wk =   0.0555556
        k(   67) = (   0.5000000  -0.1666667   0.8333333), wk =   0.0277778
        k(   68) = (   0.6666667  -0.1666667   1.0000000), wk =   0.0277778
        k(   69) = (   0.5833333  -0.0833333   0.9166667), wk =   0.0555556
        k(   70) = (   0.5000000   0.0000000   0.8333333), wk =   0.0277778
        k(   71) = (  -0.3333333  -1.0000000   0.0000000), wk =   0.0138889
        k(   72) = (  -0.5000000  -1.0000000   0.0000000), wk =   0.0069444

     Dense  grid:    87027 G-vectors     FFT dimensions: (  64,  64,  64)

     Smooth grid:    16625 G-vectors     FFT dimensions: (  36,  36,  36)

     Estimated max dynamical RAM per process >     326.54 MB

     Initial potential from superposition of free atoms

     starting charge    7.99888, renormalised to    8.00000
     Starting wfcs are    8 randomized atomic wfcs

     total cpu time spent up to now is        6.5 secs

     Self-consistent Calculation

     iteration #  1     ecut=    60.00 Ry     beta= 0.60
     Davidson diagonalization with overlap
     ethr =  1.00E-02,  avg # of iterations =  3.9

     Threshold (ethr) on eigenvalues was too large:
     Diagonalizing with lowered threshold

     Davidson diagonalization with overlap
     ethr =  7.30E-04,  avg # of iterations =  1.2

     total cpu time spent up to now is       10.9 secs

     total energy              =     -22.83749050 Ry
     Harris-Foulkes estimate   =     -22.85084351 Ry
     estimated scf accuracy    <       0.05770038 Ry

     iteration #  2     ecut=    60.00 Ry     beta= 0.60
     Davidson diagonalization with overlap
     ethr =  7.21E-04,  avg # of iterations =  1.0

     total cpu time spent up to now is       12.7 secs

     total energy              =     -22.83873041 Ry
     Harris-Foulkes estimate   =     -22.83940864 Ry
     estimated scf accuracy    <       0.00512862 Ry

     iteration #  3     ecut=    60.00 Ry     beta= 0.60
     Davidson diagonalization with overlap
     ethr =  6.41E-05,  avg # of iterations =  1.8

     total cpu time spent up to now is       14.7 secs

     total energy              =     -22.83898903 Ry
     Harris-Foulkes estimate   =     -22.83898790 Ry
     estimated scf accuracy    <       0.00008598 Ry

     iteration #  4     ecut=    60.00 Ry     beta= 0.60
     Davidson diagonalization with overlap
     ethr =  1.07E-06,  avg # of iterations =  3.5

     total cpu time spent up to now is       17.2 secs

     total energy              =     -22.83902065 Ry
     Harris-Foulkes estimate   =     -22.83902095 Ry
     estimated scf accuracy    <       0.00000123 Ry

     iteration #  5     ecut=    60.00 Ry     beta= 0.60
     Davidson diagonalization with overlap
     ethr =  1.53E-08,  avg # of iterations =  2.0

     total cpu time spent up to now is       19.4 secs

     total energy              =     -22.83902096 Ry
     Harris-Foulkes estimate   =     -22.83902098 Ry
     estimated scf accuracy    <       0.00000012 Ry

     iteration #  6     ecut=    60.00 Ry     beta= 0.60
     Davidson diagonalization with overlap
     ethr =  1.49E-09,  avg # of iterations =  1.6

     total cpu time spent up to now is       21.7 secs

     End of self-consistent calculation

          k = 0.0000 0.0000 0.0000 (  2085 PWs)   bands (ev):

    -5.7020   6.3716   6.3716   6.3716   8.9410   8.9410   8.9410   9.9176

          k =-0.0833 0.0833-0.0833 (  2085 PWs)   bands (ev):

    -5.6097   5.5115   6.2252   6.2252   9.0103   9.1562   9.1562  10.5547

          k =-0.1667 0.1667-0.1667 (  2088 PWs)   bands (ev):

    -5.3358   3.9765   5.9138   5.9138   8.7729   9.5979   9.5979  11.9644

          k =-0.2500 0.2500-0.2500 (  2085 PWs)   bands (ev):

    -4.8910   2.4127   5.6007   5.6007   8.4551   9.8911   9.8911  13.4221

          k =-0.3333 0.3333-0.3333 (  2090 PWs)   bands (ev):

    -4.3048   0.9872   5.3575   5.3575   8.1905   9.8831   9.8831  14.3051

          k =-0.4167 0.4167-0.4167 (  2078 PWs)   bands (ev):

    -3.6726  -0.1603   5.2079   5.2079   8.0227   9.7633   9.7633  14.2142

          k = 0.5000-0.5000 0.5000 (  2060 PWs)   bands (ev):

    -3.3302  -0.6761   5.1577   5.1577   7.9656   9.7064   9.7064  14.1277

          k = 0.0000 0.1667 0.0000 (  2081 PWs)   bands (ev):

    -5.5788   5.6891   5.9326   5.9326   8.6633   9.5311   9.5311  10.5422

          k =-0.0833 0.2500-0.0833 (  2076 PWs)   bands (ev):

    -5.3649   4.4398   5.5628   5.7636   8.6886   9.6458  10.0773  11.3793

          k =-0.1667 0.3333-0.1667 (  2082 PWs)   bands (ev):

    -4.9756   2.9196   5.2457   5.4370   8.8354   9.6262  10.4636  11.8046

          k =-0.2500 0.4167-0.2500 (  2081 PWs)   bands (ev):

    -4.4315   1.4641   5.0338   5.0797   8.7077   9.6863  10.4779  12.3719

          k =-0.3333 0.5000-0.3333 (  2076 PWs)   bands (ev):

    -3.7949   0.2153   4.7795   4.9440   8.5472   9.6405  10.2727  13.4358

          k = 0.5833-0.4167 0.5833 (  2083 PWs)   bands (ev):

    -3.2930  -0.5692   4.5710   4.9764   8.4701   9.6368  10.0667  14.3389

          k = 0.5000-0.3333 0.5000 (  2082 PWs)   bands (ev):

    -3.4169  -0.3877   4.4730   5.1224   8.5000   9.7533   9.9544  14.4473

          k = 0.4167-0.2500 0.4167 (  2080 PWs)   bands (ev):

    -4.0108   0.6016   4.4987   5.3659   8.6351   9.9261   9.9680  13.9254

          k = 0.3333-0.1667 0.3333 (  2084 PWs)   bands (ev):

    -4.6288   1.9349   4.6582   5.6805   8.8615   9.8525  10.1314  12.9637

          k = 0.2500-0.0833 0.2500 (  2079 PWs)   bands (ev):

    -5.1248   3.4130   4.9634   6.0146   9.1413   9.5550   9.9288  12.2105

          k = 0.1667-0.0000 0.1667 (  2077 PWs)   bands (ev):

    -5.4567   4.7813   5.4907   6.2531   9.1935   9.3546   9.3574  11.3308

          k = 0.0000 0.3333 0.0000 (  2061 PWs)   bands (ev):

    -5.2113   4.3455   5.1571   5.1571   8.0710  10.7373  10.7522  10.7522

          k =-0.0833 0.4167-0.0833 (  2070 PWs)   bands (ev):

    -4.8795   3.2408   4.8107   4.8181   8.0918  10.3064  11.0850  11.3205

          k =-0.1667 0.5000-0.1667 (  2090 PWs)   bands (ev):

    -4.3843   1.9090   4.3549   4.5971   8.3356  10.4792  10.9232  11.4814

          k =-0.2500 0.5833-0.2500 (  2094 PWs)   bands (ev):

    -3.7665   0.6544   3.9106   4.5128   8.3818  10.6823  11.2902  11.4508

          k = 0.6667-0.3333 0.6667 (  2092 PWs)   bands (ev):

    -3.1710  -0.2973   3.5610   4.5683   8.4163  10.5326  11.0096  12.8414

          k = 0.5833-0.2500 0.5833 (  2084 PWs)   bands (ev):

    -3.0535  -0.4610   3.3426   4.7558   8.5682  10.4804  10.7797  14.4154

          k = 0.5000-0.1667 0.5000 (  2082 PWs)   bands (ev):

    -3.5639   0.3132   3.2824   5.0559   8.8443  10.5295  10.6154  13.7446

          k = 0.4167-0.0833 0.4167 (  2088 PWs)   bands (ev):

    -4.1991   1.4798   3.4241   5.4303   9.1895  10.3928  10.5807  12.5773

          k = 0.3333 0.0000 0.3333 (  2083 PWs)   bands (ev):

    -4.7392   2.6384   3.9173   5.8005   9.4599   9.9482  10.2500  12.1048

          k = 0.0000 0.5000 0.0000 (  2085 PWs)   bands (ev):

    -4.6052   2.8555   4.4503   4.4503   7.4878   9.5044  12.1825  12.1825

          k =-0.0833 0.5833-0.0833 (  2081 PWs)   bands (ev):

    -4.1624   1.9326   3.9785   4.2007   7.5723   9.1435  12.4841  12.6653

          k =-0.1667 0.6667-0.1667 (  2082 PWs)   bands (ev):

    -3.5782   0.8866   3.3376   4.0926   7.7893   9.6251  12.3584  12.6124

          k = 0.7500-0.2500 0.7500 (  2092 PWs)   bands (ev):

    -2.9427  -0.0571   2.7836   4.1324   7.8772  10.8353  12.1965  12.3260

          k = 0.6667-0.1667 0.6667 (  2095 PWs)   bands (ev):

    -2.6107  -0.4818   2.4146   4.3156   8.0608  11.8669  12.0249  12.6116

          k = 0.5833-0.0833 0.5833 (  2084 PWs)   bands (ev):

    -2.9946   0.0230   2.2905   4.6255   8.3934  11.7269  11.8621  13.6373

          k = 0.5000 0.0000 0.5000 (  2085 PWs)   bands (ev):

    -3.6279   0.8596   2.5559   5.0245   8.8323  11.1944  11.5461  12.6038

          k = 0.0000 0.6667 0.0000 (  2080 PWs)   bands (ev):

    -3.7715   1.3447   3.9156   3.9156   7.0772   8.3435  13.7073  13.7073

          k =-0.0833 0.7500-0.0833 (  2087 PWs)   bands (ev):

    -3.2289   0.5485   3.4200   3.7713   7.2399   8.2153  14.0452  14.0734

          k = 0.8333-0.1667 0.8333 (  2092 PWs)   bands (ev):

    -2.5894  -0.2309   2.6771   3.7779   7.4121   9.0879  13.8808  13.9438

          k = 0.7500-0.0833 0.7500 (  2100 PWs)   bands (ev):

    -2.1096  -0.7320   2.0869   3.9342   7.5918  10.5513  13.5262  13.7760

          k = 0.6667-0.0000 0.6667 (  2091 PWs)   bands (ev):

    -2.3861  -0.4430   1.8814   4.2274   7.9255  12.1948  12.9041  13.5355

          k = 0.0000 0.8333 0.0000 (  2100 PWs)   bands (ev):

    -2.7275  -0.1258   3.5864   3.5864   6.9165   7.5198  15.2899  15.2899

          k = 0.9167-0.0833 0.9167 (  2087 PWs)   bands (ev):

    -2.1047  -0.8229   3.1446   3.5524   7.1174   7.6938  15.5333  15.6501

          k = 0.8333 0.0000 0.8333 (  2089 PWs)   bands (ev):

    -1.6382  -1.2344   2.4586   3.6713   7.2789   8.9131  14.9841  15.5575

          k = 0.0000-1.0000 0.0000 (  2100 PWs)   bands (ev):

    -1.4997  -1.4997   3.4754   3.4754   7.0521   7.0521  16.6130  16.6130

          k =-0.1667 0.3333 0.0000 (  2078 PWs)   bands (ev):

    -5.0925   3.6393   4.7081   5.6581   8.7144   9.9808  10.5605  11.3125

          k =-0.2500 0.4167-0.0833 (  2077 PWs)   bands (ev):

    -4.6498   2.3810   4.1720   5.3781   9.0043   9.9383  10.9686  11.2817

          k =-0.3333 0.5000-0.1667 (  2084 PWs)   bands (ev):

    -4.0655   1.0589   3.9036   5.0444   9.0595   9.7838  11.0241  11.9448

          k = 0.5833-0.4167 0.7500 (  2082 PWs)   bands (ev):

    -3.4321  -0.0496   3.7780   4.7925   9.0144   9.5729  10.9379  13.1802

          k = 0.5000-0.3333 0.6667 (  2088 PWs)   bands (ev):

    -3.0854  -0.5585   3.7433   4.6986   8.9988   9.4788  10.8911  14.5136

          k =-0.1667 0.5000 0.0000 (  2075 PWs)   bands (ev):

    -4.4930   2.4417   4.0024   4.7207   8.1585   9.9115  11.2354  12.0602

          k =-0.2500 0.5833-0.0833 (  2083 PWs)   bands (ev):

    -3.9523   1.3754   3.4603   4.4257   8.4942  10.1289  10.9798  12.4479

          k = 0.6667-0.3333 0.8333 (  2083 PWs)   bands (ev):

    -3.3161   0.3016   3.1029   4.2100   8.6152  10.6071  11.2212  12.4278

          k = 0.5833-0.2500 0.7500 (  2084 PWs)   bands (ev):

    -2.8082  -0.4202   2.8548   4.1914   8.7462  10.3337  12.3141  12.7048

          k = 0.5000-0.1667 0.6667 (  2080 PWs)   bands (ev):

    -2.9470  -0.2289   2.7328   4.3678   9.0026  10.1395  12.2371  13.0813

          k = 0.4167-0.0833 0.5833 (  2084 PWs)   bands (ev):

    -3.5490   0.6661   2.8033   4.6911   9.3732   9.9937  11.7058  12.1801

          k = 0.3333 0.0000 0.5000 (  2072 PWs)   bands (ev):

    -4.1614   1.6609   3.2207   5.0807   9.5999   9.7685  11.0642  11.7549

          k =-0.1667 0.6667-0.0000 (  2077 PWs)   bands (ev):

    -3.6710   1.1661   3.4854   3.9201   7.7535   8.8393  12.4965  13.6546

          k = 0.7500-0.2500 0.9167 (  2092 PWs)   bands (ev):

    -3.0557   0.3189   2.8874   3.6985   8.0884   9.3808  12.1909  14.0284

          k = 0.6667-0.1667 0.8333 (  2099 PWs)   bands (ev):

    -2.4547  -0.4095   2.3573   3.7070   8.2430  10.6880  11.8936  13.9651

          k = 0.5833-0.0833 0.7500 (  2092 PWs)   bands (ev):

    -2.3808  -0.4831   2.0626   3.9094   8.5046  11.4580  12.4697  13.1726

          k = 0.5000 0.0000 0.6667 (  2093 PWs)   bands (ev):

    -2.9288   0.1170   2.1500   4.2609   8.9050  11.0461  11.9188  13.2642

          k = 0.8333-0.1667 1.0000 (  2090 PWs)   bands (ev):

    -2.6483  -0.1618   3.1972   3.3958   7.5775   8.0878  13.8855  15.2867

          k = 0.7500-0.0833 0.9167 (  2094 PWs)   bands (ev):

    -2.0084  -0.8134   2.5539   3.3516   7.8701   9.0114  13.5595  15.0686

          k = 0.6667 0.0000 0.8333 (  2099 PWs)   bands (ev):

    -1.8472  -0.9311   2.0452   3.5522   8.1114  10.5577  13.0951  13.4878

          k =-0.1667-1.0000-0.0000 (  2086 PWs)   bands (ev):

    -1.4600  -1.4600   3.1608   3.1608   7.6767   7.6767  15.3764  15.3764

          k = 0.6667-0.3333 1.0000 (  2092 PWs)   bands (ev):

    -3.3792   0.6998   2.7422   4.0378   9.2339  10.0842  10.6553  13.5038

          k = 0.5833-0.2500 0.9167 (  2087 PWs)   bands (ev):

    -2.7439  -0.0823   2.3910   3.6935   9.6058  10.1575  11.1650  13.9334

          k = 0.5000-0.1667 0.8333 (  2100 PWs)   bands (ev):

    -2.3754  -0.5212   2.2981   3.5612   9.7232   9.9623  12.5095  12.9567

          k = 0.6667-0.1667 1.0000 (  2097 PWs)   bands (ev):

    -2.4292  -0.3071   2.5389   3.1657   9.0580   9.4574  11.8061  14.7678

          k = 0.5833-0.0833 0.9167 (  2105 PWs)   bands (ev):

    -1.8957  -0.8212   2.2157   3.0089   9.3995  10.6686  11.5338  12.9261

          k = 0.5000 0.0000 0.8333 (  2102 PWs)   bands (ev):

    -2.1306  -0.5890   2.0886   3.2384   9.7034  10.8679  11.4138  12.6718

          k =-0.3333-1.0000 0.0000 (  2090 PWs)   bands (ev):

    -1.3746  -1.3746   2.6626   2.6626   9.1214   9.1214  13.1975  13.1975

          k =-0.5000-1.0000 0.0000 (  2120 PWs)   bands (ev):

    -1.3284  -1.3284   2.4495   2.4495  10.6445  10.6445  11.4316  11.4316

     the Fermi energy is     6.6467 ev

!    total energy              =     -22.83902097 Ry
     Harris-Foulkes estimate   =     -22.83902097 Ry
     estimated scf accuracy    <          8.0E-10 Ry

     The total energy is the sum of the following terms:

     one-electron contribution =       5.29054859 Ry
     hartree contribution      =       1.08626430 Ry
     xc contribution           =     -12.32865790 Ry
     ewald contribution        =     -16.88717597 Ry
     smearing contrib. (-TS)   =      -0.00000000 Ry

     convergence has been achieved in   6 iterations

     Writing output data file si.save\

     init_run     :      6.69s CPU      3.23s WALL (       1 calls)
     electrons    :     64.20s CPU     15.23s WALL (       1 calls)

     Called by init_run:
     wfcinit      :      3.19s CPU      0.81s WALL (       1 calls)
     potinit      :      0.42s CPU      0.11s WALL (       1 calls)
     hinit0       :      1.91s CPU      1.94s WALL (       1 calls)

     Called by electrons:
     c_bands      :     37.98s CPU      9.31s WALL (       7 calls)
     sum_band     :     16.72s CPU      3.84s WALL (       7 calls)
     v_of_rho     :      2.84s CPU      0.62s WALL (       7 calls)
     newd         :      7.73s CPU      1.72s WALL (       7 calls)
     mix_rho      :      0.19s CPU      0.05s WALL (       7 calls)

     Called by c_bands:
     init_us_2    :      3.52s CPU      0.71s WALL (    1080 calls)
     cegterg      :     29.77s CPU      7.65s WALL (     504 calls)

     Called by sum_band:
     sum_band:bec :      0.05s CPU      0.03s WALL (     504 calls)
     addusdens    :      9.09s CPU      1.99s WALL (       7 calls)

     Called by *egterg:
     h_psi        :     26.88s CPU      6.77s WALL (    1661 calls)
     s_psi        :      0.42s CPU      0.17s WALL (    1661 calls)
     g_psi        :      0.36s CPU      0.07s WALL (    1085 calls)
     cdiaghg      :      1.08s CPU      0.27s WALL (    1517 calls)

     Called by h_psi:
     h_psi:pot    :     26.36s CPU      6.56s WALL (    1661 calls)
     h_psi:calbec :      0.69s CPU      0.22s WALL (    1661 calls)
     vloc_psi     :     24.70s CPU      6.14s WALL (    1661 calls)
     add_vuspsi   :      0.92s CPU      0.19s WALL (    1661 calls)

     General routines
     calbec       :      0.75s CPU      0.27s WALL (    2165 calls)
     fft          :      0.00s CPU      0.09s WALL (      90 calls)
     ffts         :      0.00s CPU      0.00s WALL (      14 calls)
     fftw         :     19.11s CPU      4.82s WALL (   25082 calls)
     interpolate  :      0.00s CPU      0.01s WALL (       7 calls)

     Parallel routines

     PWSCF        :   1m14.73s CPU     21.93s WALL


   This run was terminated on:   0:40:34  26Jun2022            

=------------------------------------------------------------------------------=
   JOB DONE.
=------------------------------------------------------------------------------=
