
     Program PWSCF v.6.4.1 starts on 23Mar2022 at 15:58:51 

     This program is part of the open-source Quantum ESPRESSO suite
     for quantum simulation of materials; please cite
         "P. Giannozzi et al., J. Phys.:Condens. Matter 21 395502 (2009);
         "P. Giannozzi et al., J. Phys.:Condens. Matter 29 465901 (2017);
          URL http://www.quantum-espresso.org", 
     in publications or presentations arising from this work. More details at
     http://www.quantum-espresso.org/quote

     Parallel version (MPI & OpenMP), running on       8 processor cores
     Number of MPI processes:                 1
     Threads/MPI process:                     8

     MPI processes distributed on     1 nodes
     Waiting for input...
     Reading input from standard input

     Current dimensions of program PWSCF are:
     Max number of different atomic species (ntypx) = 10
     Max number of k-points (npk) =  40000
     Max angular momentum in pseudopotentials (lmaxx) =  3

     Subspace diagonalization in iterative solution of the eigenvalue problem:
     a serial algorithm will be used

     Message from routine setup:
     no reason to have ecutrho>4*ecutwfc

     G-vector sticks info
     --------------------
     sticks:   dense  smooth     PW     G-vecs:    dense   smooth      PW
     Sum        2587     859    253                87843    16889    2741



     bravais-lattice index     =            2
     lattice parameter (alat)  =      10.2625  a.u.
     unit-cell volume          =     270.2088 (a.u.)^3
     number of atoms/cell      =            2
     number of atomic types    =            1
     number of electrons       =         8.00
     number of Kohn-Sham states=            4
     kinetic-energy cutoff     =      60.0000  Ry
     charge density cutoff     =     720.0000  Ry
     convergence threshold     =      1.0E-08
     mixing beta               =       0.7000
     number of iterations used =            8  plain     mixing
     Exchange-correlation      =  SLA  PZ   NOGX NOGC ( 1  1  0  0 0 0)

     celldm(1)=  10.262500  celldm(2)=   0.000000  celldm(3)=   0.000000
     celldm(4)=   0.000000  celldm(5)=   0.000000  celldm(6)=   0.000000

     crystal axes: (cart. coord. in units of alat)
               a(1) = (  -0.500000   0.000000   0.500000 )  
               a(2) = (   0.000000   0.500000   0.500000 )  
               a(3) = (  -0.500000   0.500000   0.000000 )  

     reciprocal axes: (cart. coord. in units 2 pi/alat)
               b(1) = ( -1.000000 -1.000000  1.000000 )  
               b(2) = (  1.000000  1.000000  1.000000 )  
               b(3) = ( -1.000000  1.000000 -1.000000 )  


     PseudoPot. # 1 for Si read from file:
     .\Si.pz-vbc.UPF
     MD5 check sum: 6dfa03ddd5817404712e03e4d12deb78
     Pseudo is Norm-conserving, Zval =  4.0
     Generated by new atomic code, or converted to UPF format
     Using radial grid of  431 points,  2 beta functions with: 
                l(1) =   0
                l(2) =   1

     atomic species   valence    mass     pseudopotential
        Si             4.00    28.08550     Si( 1.00)

     48 Sym. Ops., with inversion, found (24 have fractional translation)



   Cartesian axes

     site n.     atom                  positions (alat units)
         1           Si  tau(   1) = (   0.0000000   0.0000000   0.0000000  )
         2           Si  tau(   2) = (   0.2500000   0.2500000   0.2500000  )

     number of k points=    10
                       cart. coord. in units 2pi/alat
        k(    1) = (  -0.1250000   0.1250000   0.1250000), wk =   0.0625000
        k(    2) = (  -0.3750000   0.3750000  -0.1250000), wk =   0.1875000
        k(    3) = (   0.3750000  -0.3750000   0.6250000), wk =   0.1875000
        k(    4) = (   0.1250000  -0.1250000   0.3750000), wk =   0.1875000
        k(    5) = (  -0.1250000   0.6250000   0.1250000), wk =   0.1875000
        k(    6) = (   0.6250000  -0.1250000   0.8750000), wk =   0.3750000
        k(    7) = (   0.3750000   0.1250000   0.6250000), wk =   0.3750000
        k(    8) = (  -0.1250000  -0.8750000   0.1250000), wk =   0.1875000
        k(    9) = (  -0.3750000   0.3750000   0.3750000), wk =   0.0625000
        k(   10) = (   0.3750000  -0.3750000   1.1250000), wk =   0.1875000

     Dense  grid:    87843 G-vectors     FFT dimensions: (  64,  64,  64)

     Smooth grid:    16889 G-vectors     FFT dimensions: (  36,  36,  36)

     Estimated max dynamical RAM per process >      57.02 MB

     Initial potential from superposition of free atoms

     starting charge    7.99901, renormalised to    8.00000
     Starting wfcs are    8 randomized atomic wfcs

     total cpu time spent up to now is        1.0 secs

     Self-consistent Calculation

     iteration #  1     ecut=    60.00 Ry     beta= 0.70
     Davidson diagonalization with overlap
     ethr =  1.00E-02,  avg # of iterations =  2.0

     Threshold (ethr) on eigenvalues was too large:
     Diagonalizing with lowered threshold

     Davidson diagonalization with overlap
     ethr =  7.71E-04,  avg # of iterations =  1.0

     total cpu time spent up to now is        1.3 secs

     total energy              =     -15.84985000 Ry
     Harris-Foulkes estimate   =     -15.86987439 Ry
     estimated scf accuracy    <       0.05996519 Ry

     iteration #  2     ecut=    60.00 Ry     beta= 0.70
     Davidson diagonalization with overlap
     ethr =  7.50E-04,  avg # of iterations =  1.0

     total cpu time spent up to now is        1.4 secs

     total energy              =     -15.85277264 Ry
     Harris-Foulkes estimate   =     -15.85306546 Ry
     estimated scf accuracy    <       0.00214754 Ry

     iteration #  3     ecut=    60.00 Ry     beta= 0.70
     Davidson diagonalization with overlap
     ethr =  2.68E-05,  avg # of iterations =  2.5

     total cpu time spent up to now is        1.6 secs

     total energy              =     -15.85319886 Ry
     Harris-Foulkes estimate   =     -15.85322938 Ry
     estimated scf accuracy    <       0.00007181 Ry

     iteration #  4     ecut=    60.00 Ry     beta= 0.70
     Davidson diagonalization with overlap
     ethr =  8.98E-07,  avg # of iterations =  2.2

     total cpu time spent up to now is        1.8 secs

     total energy              =     -15.85321958 Ry
     Harris-Foulkes estimate   =     -15.85322326 Ry
     estimated scf accuracy    <       0.00000822 Ry

     iteration #  5     ecut=    60.00 Ry     beta= 0.70
     Davidson diagonalization with overlap
     ethr =  1.03E-07,  avg # of iterations =  2.0

     total cpu time spent up to now is        1.9 secs

     total energy              =     -15.85322099 Ry
     Harris-Foulkes estimate   =     -15.85322103 Ry
     estimated scf accuracy    <       0.00000011 Ry

     iteration #  6     ecut=    60.00 Ry     beta= 0.70
     Davidson diagonalization with overlap
     ethr =  1.35E-09,  avg # of iterations =  2.5

     total cpu time spent up to now is        2.1 secs

     End of self-consistent calculation

          k =-0.1250 0.1250 0.1250 (  2112 PWs)   bands (ev):

    -5.6836   4.4426   5.7499   5.7499

          k =-0.3750 0.3750-0.1250 (  2117 PWs)   bands (ev):

    -4.6360   1.4243   3.7225   5.2658

          k = 0.3750-0.3750 0.6250 (  2115 PWs)   bands (ev):

    -3.4596  -0.7072   3.7559   4.4768

          k = 0.1250-0.1250 0.3750 (  2106 PWs)   bands (ev):

    -5.1458   2.8252   4.7203   4.7950

          k =-0.1250 0.6250 0.1250 (  2114 PWs)   bands (ev):

    -4.0947   1.1242   3.3605   3.8292

          k = 0.6250-0.1250 0.8750 (  2132 PWs)   bands (ev):

    -2.4123  -0.8602   1.9575   3.0678

          k = 0.3750 0.1250 0.6250 (  2117 PWs)   bands (ev):

    -3.6659   0.2164   2.7074   4.1060

          k =-0.1250-0.8750 0.1250 (  2127 PWs)   bands (ev):

    -2.5938  -0.7561   2.5891   3.3533

          k =-0.3750 0.3750 0.3750 (  2114 PWs)   bands (ev):

    -4.1898   0.0953   4.9528   4.9528

          k = 0.3750-0.3750 1.1250 (  2125 PWs)   bands (ev):

    -2.9562  -0.5832   2.0296   4.1519

     highest occupied level (ev):     5.7499

!    total energy              =     -15.85322104 Ry
     Harris-Foulkes estimate   =     -15.85322104 Ry
     estimated scf accuracy    <          4.3E-09 Ry

     The total energy is the sum of the following terms:

     one-electron contribution =       4.64638864 Ry
     hartree contribution      =       1.09447406 Ry
     xc contribution           =      -4.79724696 Ry
     ewald contribution        =     -16.79683678 Ry

     convergence has been achieved in   6 iterations

     Writing output data file si.save\

     init_run     :      0.86s CPU      0.42s WALL (       1 calls)
     electrons    :      4.45s CPU      1.17s WALL (       1 calls)

     Called by init_run:
     wfcinit      :      0.39s CPU      0.10s WALL (       1 calls)
     potinit      :      0.23s CPU      0.06s WALL (       1 calls)
     hinit0       :      0.17s CPU      0.19s WALL (       1 calls)

     Called by electrons:
     c_bands      :      2.47s CPU      0.65s WALL (       7 calls)
     sum_band     :      1.00s CPU      0.30s WALL (       7 calls)
     v_of_rho     :      0.69s CPU      0.13s WALL (       7 calls)
     mix_rho      :      0.25s CPU      0.04s WALL (       7 calls)

     Called by c_bands:
     init_us_2    :      0.42s CPU      0.06s WALL (     150 calls)
     cegterg      :      2.05s CPU      0.58s WALL (      70 calls)

     Called by sum_band:

     Called by *egterg:
     h_psi        :      1.98s CPU      0.52s WALL (     212 calls)
     g_psi        :      0.05s CPU      0.01s WALL (     132 calls)
     cdiaghg      :      0.16s CPU      0.05s WALL (     192 calls)

     Called by h_psi:
     h_psi:pot    :      1.98s CPU      0.50s WALL (     212 calls)
     h_psi:calbec :      0.06s CPU      0.01s WALL (     212 calls)
     vloc_psi     :      1.86s CPU      0.49s WALL (     212 calls)
     add_vuspsi   :      0.06s CPU      0.00s WALL (     212 calls)

     General routines
     calbec       :      0.06s CPU      0.01s WALL (     212 calls)
     fft          :      0.06s CPU      0.04s WALL (      33 calls)
     ffts         :      0.00s CPU      0.00s WALL (      14 calls)
     fftw         :      1.19s CPU      0.33s WALL (    1956 calls)
     interpolate  :      0.00s CPU      0.03s WALL (       7 calls)

     Parallel routines

     PWSCF        :      5.61s CPU      2.24s WALL


   This run was terminated on:  15:58:53  23Mar2022            

=------------------------------------------------------------------------------=
   JOB DONE.
=------------------------------------------------------------------------------=
